ITEM: TIMESTEP
1
ITEM: NUMBER OF ATOMS
116135
ITEM: BOX BOUNDS pp pp pp
1.4032400000000001e+02 2.5846600000000001e+02
1.4032400000000001e+02 2.5846600000000001e+02
-1.0000000000000000e+01 2.5769000000000005e+02
ITEM: ATOMS x y z type c_cnum
182.049 153.695 1.56429 14 4
185.199 153.691 1.55557 16 6
186.767 152.116 0 12 2
186.786 152.13 3.15471 14 4
188.35 153.685 1.55191 18 8
189.925 152.116 0 12 2
189.937 152.116 3.14318 14 4
194.652 150.542 1.56302 14 4
191.504 153.678 1.54995 18 8
193.077 152.104 0 13 3
193.077 152.106 3.13806 16 6
194.654 153.675 1.54956 18 8
197.81 150.55 1.55906 14 4
196.23 152.108 0 14 4
196.23 152.11 3.13642 18 8
197.808 153.676 1.54921 18 8
199.387 152.11 0 14 4
199.387 152.113 3.13569 18 8
200.963 150.55 1.55902 14 4
200.965 153.676 1.54917 18 8
202.544 152.107 0 14 4
202.544 152.109 3.13628 18 8
204.122 150.54 1.56284 14 4
204.12 153.673 1.54945 18 8
205.697 152.102 0 13 3
205.697 152.104 3.13769 16 6
207.271 153.676 1.54974 18 8
208.849 152.113 0 12 2
208.838 152.113 3.14229 14 4
210.424 153.681 1.55158 18 8
212.009 152.112 0 12 2
211.991 152.124 3.15278 14 4
213.577 153.686 1.55487 16 6
216.725 153.691 1.56201 14 4
175.747 156.845 1.56619 14 4
174.152 158.397 0 13 3
174.17 158.416 3.15093 16 6
178.893 156.832 1.55312 16 6
180.46 155.252 0 13 3
180.472 155.262 3.14574 16 6
177.312 158.403 0 14 4
177.317 158.405 3.13522 18 8
180.464 158.398 0 14 4
180.465 158.397 3.12874 18 8
182.04 156.825 1.54911 18 8
183.618 155.256 0 14 4
183.622 155.258 3.13572 18 8
185.194 156.824 1.54816 18 8
183.616 158.396 0 14 4
183.616 158.393 3.12585 18 8
186.772 155.254 0 14 4
186.774 155.253 3.13118 18 8
188.348 156.821 1.54729 18 8
189.926 155.251 0 14 4
189.927 155.247 3.12846 18 8
186.77 158.394 0 14 4
186.77 158.391 3.12452 18 8
189.924 158.392 0 14 4
189.924 158.389 3.12347 18 8
191.502 156.818 1.54663 18 8
193.079 155.246 0 14 4
193.078 155.244 3.12714 18 8
194.655 156.816 1.5462 18 8
193.078 158.389 0 14 4
193.078 158.387 3.12278 18 8
196.232 155.245 0 14 4
196.231 155.243 3.12645 18 8
197.809 156.815 1.54601 18 8
199.387 155.246 0 14 4
199.387 155.243 3.12619 18 8
196.232 158.388 0 14 4
196.232 158.385 3.12231 18 8
199.387 158.388 0 14 4
199.387 158.385 3.12213 18 8
200.965 156.815 1.54598 18 8
202.542 155.244 0 14 4
202.543 155.242 3.12633 18 8
202.542 158.387 0 14 4
202.542 158.385 3.12222 18 8
204.119 156.815 1.54611 18 8
205.696 155.244 0 14 4
205.696 155.242 3.1269 18 8
207.272 156.816 1.54647 18 8
205.696 158.388 0 14 4
205.696 158.385 3.12259 18 8
208.848 155.248 0 14 4
208.848 155.244 3.12802 18 8
210.426 156.819 1.54711 18 8
212.002 155.25 0 14 4
212 155.249 3.13049 18 8
208.85 158.39 0 14 4
208.85 158.387 3.12321 18 8
212.003 158.392 0 14 4
212.003 158.389 3.12421 18 8
213.578 156.822 1.54794 18 8
215.154 155.253 0 14 4
215.151 155.255 3.13443 18 8
216.729 156.827 1.54865 18 8
215.155 158.395 0 14 4
215.156 158.393 3.12547 18 8
218.305 155.258 0 13 3
218.295 155.266 3.1421 16 6
219.88 156.834 1.55054 18 8
221.458 155.266 0 12 2
221.437 155.289 3.15864 14 4
218.308 158.399 0 14 4
218.308 158.398 3.12754 18 8
221.463 158.401 0 14 4
221.46 158.402 3.13223 18 8
223.034 156.837 1.56033 16 6
224.618 158.397 0 13 3
224.606 158.405 3.14345 16 6
171.012 161.552 0 13 3
171.022 161.558 3.13986 16 6
172.585 159.976 1.55747 16 6
175.734 159.973 1.54856 18 8
174.158 161.545 0 14 4
174.159 161.546 3.12993 18 8
178.887 159.971 1.54733 18 8
177.309 161.545 0 14 4
177.308 161.543 3.12536 18 8
180.461 161.542 0 14 4
180.461 161.54 3.12349 18 8
182.039 159.968 1.54608 18 8
185.192 159.966 1.54544 18 8
183.614 161.54 0 14 4
183.614 161.538 3.12208 18 8
188.346 159.964 1.5449 18 8
186.768 161.538 0 14 4
186.768 161.536 3.12116 18 8
189.923 161.537 0 14 4
189.922 161.535 3.12047 18 8
191.5 159.962 1.54446 18 8
194.655 159.961 1.54414 18 8
193.077 161.535 0 14 4
193.077 161.533 3.11997 18 8
197.81 159.96 1.54399 18 8
196.232 161.534 0 14 4
196.232 161.532 3.11964 18 8
199.387 161.534 0 14 4
199.387 161.532 3.1195 18 8
200.965 159.959 1.54396 18 8
202.542 161.534 0 14 4
202.542 161.532 3.11957 18 8
204.119 159.96 1.54407 18 8
207.273 159.961 1.54435 18 8
205.697 161.534 0 14 4
205.697 161.532 3.11984 18 8
210.427 159.963 1.54476 18 8
208.851 161.536 0 14 4
208.851 161.533 3.1203 18 8
212.005 161.538 0 14 4
212.006 161.535 3.12097 18 8
213.581 159.965 1.54528 18 8
216.734 159.968 1.54591 18 8
215.159 161.54 0 14 4
215.159 161.538 3.12183 18 8
219.887 159.971 1.5469 18 8
218.312 161.542 0 14 4
218.313 161.54 3.12301 18 8
221.465 161.544 0 14 4
221.466 161.542 3.12471 18 8
223.04 159.972 1.54829 18 8
226.183 159.981 1.55266 16 6
224.614 161.548 0 14 4
224.613 161.547 3.12817 18 8
229.323 159.998 1.56591 14 4
227.762 161.557 0 14 4
227.757 161.559 3.13544 18 8
230.916 161.555 0 13 3
230.897 161.577 3.15456 16 6
166.287 166.287 1.5501 16 6
169.442 163.136 1.55109 16 6
167.863 164.711 0 13 3
169.434 166.28 1.54762 18 8
167.866 164.714 3.13512 16 6
171.01 164.702 0 14 4
171.01 164.702 3.12756 18 8
172.585 163.124 1.54771 18 8
175.732 163.118 1.54612 18 8
172.581 166.273 1.54572 18 8
174.157 164.695 0 14 4
174.156 164.694 3.12405 18 8
175.73 166.268 1.5445 18 8
178.884 163.116 1.54511 18 8
177.307 164.692 0 14 4
177.306 164.69 3.12199 18 8
178.882 166.265 1.54361 18 8
180.459 164.69 0 14 4
180.458 164.688 3.12068 18 8
182.036 163.114 1.54428 18 8
185.19 163.112 1.54369 18 8
182.035 166.263 1.54292 18 8
183.613 164.688 0 14 4
183.612 164.686 3.11966 18 8
185.189 166.261 1.54239 18 8
188.344 163.111 1.54323 18 8
186.767 164.686 0 14 4
186.766 164.684 3.1189 18 8
188.343 166.26 1.54199 18 8
189.921 164.685 0 14 4
189.921 164.683 3.11833 18 8
191.499 163.109 1.54288 18 8
194.654 163.108 1.54264 18 8
191.498 166.259 1.54169 18 8
193.077 164.684 0 14 4
193.076 164.682 3.11792 18 8
194.654 166.258 1.54148 18 8
197.809 163.108 1.54251 18 8
196.232 164.683 0 14 4
196.232 164.681 3.11765 18 8
197.809 166.258 1.54137 18 8
199.387 164.683 0 14 4
199.387 164.681 3.11755 18 8
200.965 163.107 1.54249 18 8
200.965 166.257 1.54135 18 8
202.542 164.683 0 14 4
202.543 164.681 3.1176 18 8
204.12 163.108 1.54258 18 8
207.275 163.109 1.54279 18 8
204.12 166.258 1.54143 18 8
205.698 164.683 0 14 4
205.698 164.682 3.11781 18 8
207.276 166.258 1.54161 18 8
210.429 163.11 1.54312 18 8
208.852 164.684 0 14 4
208.853 164.682 3.11819 18 8
210.431 166.259 1.54188 18 8
212.007 164.686 0 14 4
212.008 164.684 3.11873 18 8
213.583 163.112 1.54356 18 8
216.737 163.114 1.54413 18 8
213.585 166.261 1.54226 18 8
215.161 164.687 0 14 4
215.162 164.685 3.11944 18 8
216.74 166.262 1.54276 18 8
219.89 163.116 1.54488 18 8
218.315 164.689 0 14 4
218.316 164.687 3.12037 18 8
219.893 166.264 1.5434 18 8
221.468 164.692 0 14 4
221.469 164.689 3.12164 18 8
223.042 163.119 1.54581 18 8
226.191 163.124 1.54745 18 8
223.046 166.267 1.54423 18 8
224.619 164.695 0 14 4
224.62 164.693 3.12354 18 8
226.197 166.27 1.54534 18 8
229.34 163.13 1.54936 18 8
227.769 164.7 0 14 4
227.77 164.698 3.12614 18 8
229.348 166.274 1.54672 18 8
230.92 164.702 0 14 4
230.917 164.705 3.13317 18 8
232.484 163.14 1.56323 16 6
232.497 166.278 1.54887 18 8
234.072 164.702 0 13 3
234.055 164.72 3.15258 16 6
235.637 166.289 1.56249 16 6
161.552 171.012 0 13 3
161.558 171.022 3.13986 16 6
163.136 169.442 1.55109 16 6
164.711 167.863 0 13 3
166.28 169.434 1.54762 18 8
164.714 167.866 3.13512 16 6
164.702 171.01 0 14 4
164.702 171.01 3.12756 18 8
167.857 167.857 0 14 4
169.428 169.428 1.54575 18 8
167.856 167.856 3.1269 18 8
171.005 167.851 0 14 4
171.004 167.849 3.1237 18 8
167.851 171.005 0 14 4
167.849 171.004 3.1237 18 8
171 171 0 14 4
170.999 170.999 3.12137 18 8
172.577 169.423 1.54434 18 8
174.154 167.845 0 14 4
174.153 167.844 3.12148 18 8
175.728 169.418 1.54328 18 8
174.151 170.996 0 14 4
174.15 170.995 3.11964 18 8
177.305 167.842 0 14 4
177.304 167.84 3.1199 18 8
178.88 169.416 1.54248 18 8
180.457 167.839 0 14 4
180.456 167.838 3.11875 18 8
177.303 170.993 0 14 4
177.302 170.992 3.1183 18 8
180.456 170.991 0 14 4
180.455 170.99 3.11727 18 8
182.033 169.414 1.54187 18 8
183.611 167.838 0 14 4
183.61 167.836 3.11787 18 8
185.187 169.412 1.54139 18 8
183.61 170.989 0 14 4
183.609 170.988 3.11647 18 8
186.765 167.836 0 14 4
186.765 167.835 3.1172 18 8
188.342 169.411 1.54102 18 8
189.921 167.835 0 14 4
189.92 167.834 3.11669 18 8
186.765 170.988 0 14 4
186.764 170.987 3.11586 18 8
189.92 170.987 0 14 4
189.919 170.986 3.1154 18 8
191.498 169.41 1.54075 18 8
193.076 167.834 0 14 4
193.076 167.833 3.11633 18 8
194.653 169.41 1.54057 18 8
193.075 170.987 0 14 4
193.075 170.985 3.11507 18 8
196.231 167.834 0 14 4
196.231 167.833 3.11611 18 8
197.809 169.409 1.54047 18 8
199.387 167.834 0 14 4
199.387 167.832 3.11601 18 8
196.231 170.986 0 14 4
196.231 170.985 3.11487 18 8
199.387 170.986 0 14 4
199.387 170.985 3.11479 18 8
200.965 169.409 1.54046 18 8
202.543 167.834 0 14 4
202.543 167.832 3.11606 18 8
202.543 170.986 0 14 4
202.543 170.985 3.11482 18 8
204.121 169.409 1.54052 18 8
205.698 167.834 0 14 4
205.699 167.833 3.11624 18 8
207.277 169.41 1.54068 18 8
205.699 170.986 0 14 4
205.699 170.985 3.11498 18 8
208.854 167.835 0 14 4
208.854 167.833 3.11656 18 8
210.432 169.411 1.54092 18 8
212.009 167.836 0 14 4
212.009 167.834 3.11702 18 8
208.855 170.987 0 14 4
208.855 170.986 3.11526 18 8
212.01 170.987 0 14 4
212.011 170.986 3.11568 18 8
213.587 169.412 1.54125 18 8
215.164 167.837 0 14 4
215.164 167.835 3.11765 18 8
216.742 169.413 1.54169 18 8
215.165 170.988 0 14 4
215.166 170.987 3.11623 18 8
218.318 167.839 0 14 4
218.319 167.837 3.11846 18 8
219.896 169.414 1.54226 18 8
221.471 167.841 0 14 4
221.472 167.839 3.11953 18 8
218.32 170.99 0 14 4
218.321 170.988 3.11696 18 8
221.474 170.991 0 14 4
221.475 170.99 3.11789 18 8
223.049 169.417 1.54299 18 8
224.623 167.843 0 14 4
224.625 167.841 3.12092 18 8
226.201 169.419 1.54392 18 8
224.627 170.993 0 14 4
224.628 170.992 3.11907 18 8
227.775 167.846 0 14 4
227.776 167.844 3.12273 18 8
229.353 169.422 1.54508 18 8
230.925 167.85 0 14 4
230.926 167.848 3.12554 18 8
227.778 170.996 0 14 4
227.78 170.994 3.12057 18 8
230.929 170.999 0 14 4
230.93 170.997 3.12259 18 8
232.501 169.426 1.54663 18 8
234.073 167.853 0 14 4
234.071 167.856 3.1328 18 8
235.647 169.432 1.54909 18 8
234.076 171.003 0 14 4
234.078 171.002 3.12575 18 8
237.221 167.856 0 13 3
237.203 167.873 3.15306 16 6
238.781 169.446 1.5642 16 6
237.22 171.01 0 14 4
237.218 171.013 3.13407 18 8
240.361 171.018 0 12 2
240.34 171.041 3.15892 14 4
158.397 174.152 0 13 3
158.416 174.17 3.15093 16 6
156.845 175.747 1.56619 14 4
159.976 172.585 1.55747 16 6
161.545 174.158 0 14 4
161.546 174.159 3.12993 18 8
159.973 175.734 1.54856 18 8
163.124 172.585 1.54771 18 8
166.273 172.581 1.54572 18 8
164.695 174.157 0 14 4
164.694 174.156 3.12405 18 8
163.118 175.732 1.54612 18 8
166.268 175.73 1.5445 18 8
169.423 172.577 1.54434 18 8
167.845 174.154 0 14 4
167.844 174.153 3.12148 18 8
170.996 174.151 0 14 4
170.995 174.15 3.11964 18 8
169.418 175.728 1.54328 18 8
172.573 172.573 1.54321 18 8
174.148 174.148 0 14 4
174.147 174.147 3.11818 18 8
175.725 172.57 1.5423 18 8
172.57 175.725 1.5423 18 8
175.723 175.723 1.5415 18 8
177.301 174.146 0 14 4
177.3 174.144 3.11701 18 8
178.878 172.568 1.54159 18 8
180.454 174.144 0 14 4
180.454 174.143 3.11608 18 8
178.876 175.721 1.54086 18 8
182.032 172.566 1.54102 18 8
183.609 174.142 0 14 4
183.608 174.141 3.11535 18 8
185.186 172.565 1.54058 18 8
182.031 175.72 1.54034 18 8
185.186 175.718 1.53994 18 8
186.764 174.141 0 14 4
186.763 174.14 3.11478 18 8
188.342 172.564 1.54025 18 8
189.919 174.14 0 14 4
189.919 174.14 3.11436 18 8
188.341 175.718 1.53963 18 8
191.497 172.563 1.54 18 8
193.075 174.14 0 14 4
193.075 174.139 3.11405 18 8
194.653 172.563 1.53984 18 8
191.497 175.717 1.5394 18 8
194.653 175.717 1.53925 18 8
196.231 174.139 0 14 4
196.231 174.139 3.11387 18 8
197.809 172.562 1.53975 18 8
199.387 174.139 0 14 4
199.387 174.139 3.11379 18 8
197.809 175.716 1.53916 18 8
200.965 172.562 1.53973 18 8
202.544 174.139 0 14 4
202.544 174.139 3.11382 18 8
200.966 175.716 1.53915 18 8
204.121 172.562 1.53979 18 8
205.7 174.14 0 14 4
205.7 174.139 3.11396 18 8
207.277 172.563 1.53993 18 8
204.122 175.716 1.5392 18 8
207.278 175.717 1.53932 18 8
208.856 174.14 0 14 4
208.856 174.139 3.11422 18 8
210.433 172.563 1.54014 18 8
212.011 174.14 0 14 4
212.012 174.14 3.11459 18 8
210.434 175.717 1.53952 18 8
213.589 172.564 1.54044 18 8
215.167 174.141 0 14 4
215.167 174.14 3.1151 18 8
216.744 172.565 1.54084 18 8
213.59 175.718 1.53979 18 8
216.745 175.718 1.54015 18 8
218.322 174.142 0 14 4
218.322 174.141 3.11575 18 8
219.898 172.566 1.54135 18 8
221.476 174.144 0 14 4
221.477 174.142 3.11659 18 8
219.9 175.719 1.54062 18 8
223.052 172.568 1.542 18 8
224.629 174.145 0 14 4
224.63 174.144 3.11763 18 8
226.204 172.57 1.54281 18 8
223.054 175.721 1.5412 18 8
226.207 175.722 1.54193 18 8
227.781 174.147 0 14 4
227.783 174.146 3.11895 18 8
229.356 172.572 1.54384 18 8
230.932 174.15 0 14 4
230.934 174.149 3.12065 18 8
229.358 175.724 1.54283 18 8
232.505 172.576 1.54516 18 8
234.08 174.154 0 14 4
234.082 174.153 3.12299 18 8
235.651 172.582 1.54702 18 8
232.508 175.728 1.54396 18 8
235.657 175.732 1.54537 18 8
237.227 174.16 0 14 4
237.228 174.16 3.12692 18 8
238.794 172.591 1.55056 18 8
238.804 175.736 1.5474 18 8
240.376 174.163 0 13 3
240.37 174.173 3.13926 16 6
241.95 175.738 1.55706 16 6
158.403 177.312 0 14 4
158.405 177.317 3.13522 18 8
156.832 178.893 1.55312 16 6
155.252 180.46 0 13 3
155.262 180.472 3.14574 16 6
158.398 180.464 0 14 4
158.397 180.465 3.12874 18 8
161.545 177.309 0 14 4
161.543 177.308 3.12536 18 8
159.971 178.887 1.54733 18 8
161.542 180.461 0 14 4
161.54 180.461 3.12349 18 8
164.692 177.307 0 14 4
164.69 177.306 3.12199 18 8
163.116 178.884 1.54511 18 8
166.265 178.882 1.54361 18 8
164.69 180.459 0 14 4
164.688 180.458 3.12068 18 8
167.842 177.305 0 14 4
167.84 177.304 3.1199 18 8
170.993 177.303 0 14 4
170.992 177.302 3.1183 18 8
169.416 178.88 1.54248 18 8
167.839 180.457 0 14 4
167.838 180.456 3.11875 18 8
170.991 180.456 0 14 4
170.99 180.455 3.11727 18 8
174.146 177.301 0 14 4
174.144 177.3 3.11701 18 8
172.568 178.878 1.54159 18 8
174.144 180.454 0 14 4
174.143 180.454 3.11608 18 8
175.721 178.876 1.54086 18 8
177.299 177.299 0 14 4
177.298 177.298 3.11596 18 8
180.453 177.297 0 14 4
180.452 177.297 3.11511 18 8
177.297 180.453 0 14 4
177.297 180.452 3.11511 18 8
178.875 178.875 1.54026 18 8
180.452 180.452 0 14 4
180.451 180.451 3.11433 18 8
183.608 177.296 0 14 4
183.607 177.295 3.11444 18 8
182.03 178.874 1.53979 18 8
183.607 180.451 0 14 4
183.606 180.45 3.1137 18 8
185.185 178.873 1.53941 18 8
186.763 177.295 0 14 4
186.763 177.295 3.11391 18 8
189.919 177.295 0 14 4
189.918 177.294 3.11351 18 8
186.762 180.45 0 14 4
186.762 180.45 3.1132 18 8
188.34 178.872 1.53912 18 8
189.918 180.45 0 14 4
189.918 180.449 3.11283 18 8
193.075 177.294 0 14 4
193.075 177.294 3.11323 18 8
191.496 178.872 1.53891 18 8
193.075 180.449 0 14 4
193.074 180.449 3.11256 18 8
194.653 178.871 1.53877 18 8
196.231 177.294 0 14 4
196.231 177.293 3.11305 18 8
199.387 177.294 0 14 4
199.387 177.293 3.11298 18 8
196.231 180.449 0 14 4
196.231 180.448 3.11239 18 8
197.809 178.871 1.53869 18 8
199.387 180.449 0 14 4
199.387 180.448 3.11232 18 8
202.544 177.294 0 14 4
202.544 177.293 3.11301 18 8
200.966 178.871 1.53867 18 8
202.544 180.449 0 14 4
202.544 180.448 3.11234 18 8
205.7 177.294 0 14 4
205.7 177.293 3.11313 18 8
204.122 178.871 1.53872 18 8
205.7 180.449 0 14 4
205.701 180.448 3.11246 18 8
207.279 178.871 1.53883 18 8
208.856 177.294 0 14 4
208.857 177.293 3.11337 18 8
212.012 177.295 0 14 4
212.013 177.294 3.11371 18 8
208.857 180.449 0 14 4
208.857 180.449 3.11268 18 8
210.435 178.872 1.53901 18 8
212.013 180.449 0 14 4
212.013 180.449 3.113 18 8
215.168 177.295 0 14 4
215.168 177.294 3.11418 18 8
213.591 178.872 1.53926 18 8
215.169 180.45 0 14 4
215.169 180.449 3.11343 18 8
216.746 178.873 1.5396 18 8
218.323 177.296 0 14 4
218.324 177.295 3.11478 18 8
221.477 177.297 0 14 4
221.478 177.296 3.11554 18 8
218.324 180.45 0 14 4
218.325 180.45 3.11399 18 8
219.901 178.873 1.54003 18 8
221.479 180.451 0 14 4
221.479 180.451 3.1147 18 8
224.631 177.298 0 14 4
224.632 177.297 3.11649 18 8
223.055 178.874 1.54056 18 8
224.632 180.452 0 14 4
224.633 180.452 3.11558 18 8
226.208 178.876 1.54122 18 8
227.783 177.3 0 14 4
227.785 177.299 3.11767 18 8
230.934 177.303 0 14 4
230.936 177.301 3.11916 18 8
227.785 180.454 0 14 4
227.786 180.453 3.11666 18 8
229.361 178.878 1.54204 18 8
230.937 180.456 0 14 4
230.938 180.455 3.11801 18 8
234.084 177.306 0 14 4
234.086 177.304 3.12106 18 8
232.511 178.88 1.54306 18 8
234.087 180.458 0 14 4
234.089 180.457 3.1197 18 8
235.66 178.883 1.54433 18 8
237.233 177.309 0 14 4
237.234 177.308 3.12372 18 8
237.235 180.461 0 14 4
237.237 180.459 3.12193 18 8
238.808 178.885 1.54603 18 8
240.381 177.31 0 14 4
240.38 177.312 3.12966 18 8
243.526 177.306 0 13 3
243.507 177.324 3.15066 16 6
240.38 180.463 0 14 4
240.382 180.463 3.12553 18 8
241.95 178.888 1.54856 18 8
243.518 180.467 0 14 4
243.515 180.473 3.13597 18 8
245.076 178.903 1.56637 14 4
153.695 182.049 1.56429 14 4
153.691 185.199 1.55557 16 6
156.825 182.04 1.54911 18 8
155.256 183.618 0 14 4
155.258 183.622 3.13572 18 8
158.396 183.616 0 14 4
158.393 183.616 3.12585 18 8
156.824 185.194 1.54816 18 8
159.968 182.039 1.54608 18 8
161.54 183.614 0 14 4
161.538 183.614 3.12208 18 8
159.966 185.192 1.54544 18 8
163.114 182.036 1.54428 18 8
166.263 182.035 1.54292 18 8
164.688 183.613 0 14 4
164.686 183.612 3.11966 18 8
163.112 185.19 1.54369 18 8
166.261 185.189 1.54239 18 8
169.414 182.033 1.54187 18 8
167.838 183.611 0 14 4
167.836 183.61 3.11787 18 8
170.989 183.61 0 14 4
170.988 183.609 3.11647 18 8
169.412 185.187 1.54139 18 8
172.566 182.032 1.54102 18 8
174.142 183.609 0 14 4
174.141 183.608 3.11535 18 8
175.72 182.031 1.54034 18 8
172.565 185.186 1.54058 18 8
175.718 185.186 1.53994 18 8
177.296 183.608 0 14 4
177.295 183.607 3.11444 18 8
178.874 182.03 1.53979 18 8
180.451 183.607 0 14 4
180.45 183.606 3.1137 18 8
178.873 185.185 1.53941 18 8
182.029 182.029 1.53934 18 8
183.606 183.606 0 14 4
183.606 183.606 3.1131 18 8
185.184 182.028 1.53899 18 8
182.028 185.184 1.53899 18 8
185.184 185.184 1.53865 18 8
186.762 183.606 0 14 4
186.762 183.605 3.11263 18 8
188.34 182.027 1.53872 18 8
189.918 183.605 0 14 4
189.918 183.605 3.11227 18 8
188.34 185.183 1.53839 18 8
191.496 182.027 1.53851 18 8
193.074 183.605 0 14 4
193.074 183.604 3.11202 18 8
194.653 182.027 1.53838 18 8
191.496 185.183 1.5382 18 8
194.652 185.183 1.53806 18 8
196.231 183.605 0 14 4
196.231 183.604 3.11186 18 8
197.809 182.026 1.5383 18 8
199.388 183.604 0 14 4
199.388 183.604 3.11179 18 8
197.809 185.182 1.53799 18 8
200.966 182.026 1.53828 18 8
202.544 183.604 0 14 4
202.544 183.604 3.11181 18 8
200.966 185.182 1.53798 18 8
204.122 182.026 1.53833 18 8
205.701 183.604 0 14 4
205.701 183.604 3.11192 18 8
207.279 182.027 1.53843 18 8
204.123 185.182 1.53802 18 8
207.279 185.182 1.53812 18 8
208.857 183.605 0 14 4
208.857 183.604 3.11212 18 8
210.435 182.027 1.5386 18 8
212.013 183.605 0 14 4
212.014 183.604 3.11242 18 8
210.436 185.183 1.53827 18 8
213.591 182.027 1.53884 18 8
215.169 183.605 0 14 4
215.17 183.605 3.11283 18 8
216.747 182.028 1.53915 18 8
213.592 185.183 1.5385 18 8
216.748 185.183 1.5388 18 8
218.325 183.606 0 14 4
218.325 183.605 3.11336 18 8
219.902 182.028 1.53955 18 8
221.48 183.606 0 14 4
221.48 183.606 3.11403 18 8
219.903 185.184 1.53917 18 8
223.056 182.029 1.54005 18 8
224.634 183.607 0 14 4
224.634 183.607 3.11485 18 8
226.21 182.03 1.54067 18 8
223.057 185.184 1.53964 18 8
226.211 185.185 1.54023 18 8
227.787 183.608 0 14 4
227.788 183.608 3.11587 18 8
229.362 182.032 1.54143 18 8
230.938 183.61 0 14 4
230.94 183.609 3.11713 18 8
229.364 185.186 1.54095 18 8
232.513 182.034 1.54238 18 8
234.089 183.612 0 14 4
234.091 183.611 3.11872 18 8
235.663 182.036 1.5436 18 8
232.515 185.188 1.54186 18 8
235.665 185.19 1.54301 18 8
237.237 183.614 0 14 4
237.239 183.613 3.12083 18 8
238.809 182.038 1.54524 18 8
238.812 185.192 1.54453 18 8
240.382 183.617 0 14 4
240.384 183.617 3.12397 18 8
241.951 182.043 1.54776 18 8
243.523 183.621 0 14 4
243.523 183.623 3.13008 18 8
241.955 185.196 1.54662 18 8
245.086 182.05 1.55465 16 6
246.663 183.619 0 12 2
246.651 183.635 3.15028 14 4
245.095 185.199 1.55027 18 8
152.116 186.767 0 12 2
152.13 186.786 3.15471 14 4
153.685 188.35 1.55191 18 8
152.116 189.925 0 12 2
152.116 189.937 3.14318 14 4
155.254 186.772 0 14 4
155.253 186.774 3.13118 18 8
158.394 186.77 0 14 4
158.391 186.77 3.12452 18 8
156.821 188.348 1.54729 18 8
155.251 189.926 0 14 4
155.247 189.927 3.12846 18 8
158.392 189.924 0 14 4
158.389 189.924 3.12347 18 8
161.538 186.768 0 14 4
161.536 186.768 3.12116 18 8
159.964 188.346 1.5449 18 8
161.537 189.923 0 14 4
161.535 189.922 3.12047 18 8
164.686 186.767 0 14 4
164.684 186.766 3.1189 18 8
163.111 188.344 1.54323 18 8
166.26 188.343 1.54199 18 8
164.685 189.921 0 14 4
164.683 189.921 3.11833 18 8
167.836 186.765 0 14 4
167.835 186.765 3.1172 18 8
170.988 186.765 0 14 4
170.987 186.764 3.11586 18 8
169.411 188.342 1.54102 18 8
167.835 189.921 0 14 4
167.834 189.92 3.11669 18 8
170.987 189.92 0 14 4
170.986 189.919 3.1154 18 8
174.141 186.764 0 14 4
174.14 186.763 3.11478 18 8
172.564 188.342 1.54025 18 8
174.14 189.919 0 14 4
174.14 189.919 3.11436 18 8
175.718 188.341 1.53963 18 8
177.295 186.763 0 14 4
177.295 186.763 3.11391 18 8
180.45 186.762 0 14 4
180.45 186.762 3.1132 18 8
177.295 189.919 0 14 4
177.294 189.918 3.11351 18 8
178.872 188.34 1.53912 18 8
180.45 189.918 0 14 4
180.449 189.918 3.11283 18 8
183.606 186.762 0 14 4
183.605 186.762 3.11263 18 8
182.027 188.34 1.53872 18 8
183.605 189.918 0 14 4
183.605 189.918 3.11227 18 8
185.183 188.34 1.53839 18 8
186.761 186.761 0 14 4
186.761 186.761 3.11218 18 8
189.918 186.761 0 14 4
189.917 186.761 3.11183 18 8
186.761 189.918 0 14 4
186.761 189.917 3.11183 18 8
188.339 188.339 1.53814 18 8
189.917 189.917 0 14 4
189.917 189.917 3.1115 18 8
193.074 186.761 0 14 4
193.074 186.761 3.11159 18 8
191.496 188.339 1.53795 18 8
193.074 189.917 0 14 4
193.074 189.917 3.11126 18 8
194.652 188.339 1.53782 18 8
196.231 186.761 0 14 4
196.231 186.76 3.11143 18 8
199.388 186.761 0 14 4
199.388 186.76 3.11136 18 8
196.231 189.917 0 14 4
196.231 189.917 3.11111 18 8
197.809 188.339 1.53775 18 8
199.388 189.917 0 14 4
199.388 189.917 3.11104 18 8
202.544 186.761 0 14 4
202.544 186.76 3.11138 18 8
200.966 188.339 1.53774 18 8
202.544 189.917 0 14 4
202.545 189.917 3.11106 18 8
205.701 186.761 0 14 4
205.701 186.76 3.11149 18 8
204.123 188.339 1.53777 18 8
205.701 189.917 0 14 4
205.701 189.917 3.11116 18 8
207.279 188.339 1.53787 18 8
208.858 186.761 0 14 4
208.858 186.76 3.11168 18 8
212.014 186.761 0 14 4
212.014 186.761 3.11197 18 8
208.858 189.917 0 14 4
208.858 189.917 3.11134 18 8
210.436 188.339 1.53802 18 8
212.014 189.917 0 14 4
212.014 189.917 3.11162 18 8
215.17 186.761 0 14 4
215.17 186.761 3.11236 18 8
213.592 188.339 1.53824 18 8
215.17 189.917 0 14 4
215.171 189.917 3.112 18 8
216.748 188.339 1.53852 18 8
218.325 186.762 0 14 4
218.326 186.761 3.11287 18 8
221.48 186.762 0 14 4
221.481 186.762 3.1135 18 8
218.326 189.918 0 14 4
218.326 189.917 3.11249 18 8
219.903 188.34 1.53888 18 8
221.481 189.918 0 14 4
221.482 189.918 3.1131 18 8
224.634 186.763 0 14 4
224.635 186.762 3.11429 18 8
223.058 188.34 1.53934 18 8
224.635 189.919 0 14 4
224.636 189.918 3.11386 18 8
226.212 188.341 1.53989 18 8
227.788 186.764 0 14 4
227.789 186.763 3.11526 18 8
230.94 186.765 0 14 4
230.941 186.764 3.11647 18 8
227.789 189.919 0 14 4
227.79 189.919 3.1148 18 8
229.365 188.342 1.54059 18 8
230.941 189.92 0 14 4
230.942 189.92 3.11597 18 8
234.09 186.766 0 14 4
234.092 186.766 3.11799 18 8
232.516 188.343 1.54146 18 8
234.092 189.921 0 14 4
234.094 189.921 3.11744 18 8
235.666 188.345 1.54256 18 8
237.239 186.768 0 14 4
237.241 186.768 3.11997 18 8
237.241 189.923 0 14 4
237.243 189.922 3.11933 18 8
238.814 188.347 1.544 18 8
240.385 186.771 0 14 4
240.387 186.77 3.12273 18 8
243.528 186.774 0 14 4
243.53 186.774 3.12725 18 8
240.388 189.925 0 14 4
240.391 189.924 3.12188 18 8
241.959 188.349 1.54596 18 8
243.532 189.926 0 14 4
243.534 189.926 3.12585 18 8
246.669 186.773 0 13 3
246.662 186.779 3.14054 16 6
245.101 188.35 1.54905 18 8
246.672 189.927 0 14 4
246.67 189.929 3.13599 18 8
248.233 188.351 1.56387 14 4
153.678 191.504 1.54995 18 8
152.104 193.077 0 13 3
152.106 193.077 3.13806 16 6
150.542 194.652 1.56302 14 4
153.675 194.654 1.54956 18 8
156.818 191.502 1.54663 18 8
155.246 193.079 0 14 4
155.244 193.078 3.12714 18 8
158.389 193.078 0 14 4
158.387 193.078 3.12278 18 8
156.816 194.655 1.5462 18 8
159.962 191.5 1.54446 18 8
161.535 193.077 0 14 4
161.533 193.077 3.11997 18 8
159.961 194.655 1.54414 18 8
163.109 191.499 1.54288 18 8
166.259 191.498 1.54169 18 8
164.684 193.077 0 14 4
164.682 193.076 3.11792 18 8
163.108 194.654 1.54264 18 8
166.258 194.654 1.54148 18 8
169.41 191.498 1.54075 18 8
167.834 193.076 0 14 4
167.833 193.076 3.11633 18 8
170.987 193.075 0 14 4
170.985 193.075 3.11507 18 8
169.41 194.653 1.54057 18 8
172.563 191.497 1.54 18 8
174.14 193.075 0 14 4
174.139 193.075 3.11405 18 8
175.717 191.497 1.5394 18 8
172.563 194.653 1.53984 18 8
175.717 194.653 1.53925 18 8
177.294 193.075 0 14 4
177.294 193.075 3.11323 18 8
178.872 191.496 1.53891 18 8
180.449 193.075 0 14 4
180.449 193.074 3.11256 18 8
178.871 194.653 1.53877 18 8
182.027 191.496 1.53851 18 8
183.605 193.074 0 14 4
183.604 193.074 3.11202 18 8
185.183 191.496 1.5382 18 8
182.027 194.653 1.53838 18 8
185.183 194.652 1.53806 18 8
186.761 193.074 0 14 4
186.761 193.074 3.11159 18 8
188.339 191.496 1.53795 18 8
189.917 193.074 0 14 4
189.917 193.074 3.11126 18 8
188.339 194.652 1.53782 18 8
191.496 191.496 1.53777 18 8
193.074 193.074 0 14 4
193.074 193.074 3.11103 18 8
194.652 191.495 1.53764 18 8
191.495 194.652 1.53764 18 8
194.652 194.652 1.53752 18 8
196.231 193.074 0 14 4
196.231 193.074 3.11088 18 8
197.809 191.495 1.53757 18 8
199.388 193.074 0 14 4
199.388 193.074 3.11081 18 8
197.809 194.652 1.53745 18 8
200.966 191.495 1.53756 18 8
202.545 193.074 0 14 4
202.545 193.074 3.11083 18 8
200.966 194.652 1.53743 18 8
204.123 191.495 1.53759 18 8
205.701 193.074 0 14 4
205.701 193.074 3.11092 18 8
207.28 191.495 1.53768 18 8
204.123 194.652 1.53747 18 8
207.28 194.652 1.53756 18 8
208.858 193.074 0 14 4
208.858 193.074 3.1111 18 8
210.436 191.495 1.53783 18 8
212.014 193.074 0 14 4
212.015 193.074 3.11138 18 8
210.436 194.652 1.5377 18 8
213.593 191.496 1.53804 18 8
215.171 193.074 0 14 4
215.171 193.074 3.11174 18 8
216.748 191.496 1.53832 18 8
213.593 194.652 1.53791 18 8
216.749 194.652 1.53818 18 8
218.326 193.074 0 14 4
218.327 193.074 3.11222 18 8
219.904 191.496 1.53867 18 8
221.481 193.074 0 14 4
221.482 193.074 3.11282 18 8
219.904 194.653 1.53852 18 8
223.059 191.496 1.53911 18 8
224.636 193.075 0 14 4
224.637 193.075 3.11356 18 8
226.213 191.497 1.53965 18 8
223.059 194.653 1.53895 18 8
226.213 194.653 1.53949 18 8
227.789 193.075 0 14 4
227.79 193.075 3.11448 18 8
229.366 191.497 1.54032 18 8
230.942 193.076 0 14 4
230.943 193.075 3.11562 18 8
229.366 194.653 1.54015 18 8
232.518 191.498 1.54117 18 8
234.093 193.076 0 14 4
234.095 193.076 3.11704 18 8
235.668 191.499 1.54223 18 8
232.519 194.654 1.54097 18 8
235.669 194.654 1.54201 18 8
237.243 193.077 0 14 4
237.245 193.077 3.11887 18 8
238.817 191.501 1.54362 18 8
238.818 194.655 1.54336 18 8
240.39 193.078 0 14 4
240.393 193.078 3.12134 18 8
241.963 191.502 1.54552 18 8
243.535 193.08 0 14 4
243.538 193.079 3.12511 18 8
241.965 194.656 1.54519 18 8
245.105 191.504 1.54861 18 8
246.676 193.081 0 14 4
246.675 193.083 3.13341 18 8
248.237 191.507 1.55838 14 4
245.108 194.657 1.548 18 8
248.245 194.658 1.55569 14 4
152.108 196.23 0 14 4
152.11 196.23 3.13642 18 8
150.55 197.81 1.55906 14 4
153.676 197.808 1.54921 18 8
152.11 199.387 0 14 4
152.113 199.387 3.13569 18 8
155.245 196.232 0 14 4
155.243 196.231 3.12645 18 8
158.388 196.232 0 14 4
158.385 196.232 3.12231 18 8
156.815 197.809 1.54601 18 8
155.246 199.387 0 14 4
155.243 199.387 3.12619 18 8
158.388 199.387 0 14 4
158.385 199.387 3.12213 18 8
161.534 196.232 0 14 4
161.532 196.232 3.11964 18 8
159.96 197.81 1.54399 18 8
161.534 199.387 0 14 4
161.532 199.387 3.1195 18 8
164.683 196.232 0 14 4
164.681 196.232 3.11765 18 8
163.108 197.809 1.54251 18 8
166.258 197.809 1.54137 18 8
164.683 199.387 0 14 4
164.681 199.387 3.11755 18 8
167.834 196.231 0 14 4
167.833 196.231 3.11611 18 8
170.986 196.231 0 14 4
170.985 196.231 3.11487 18 8
169.409 197.809 1.54047 18 8
167.834 199.387 0 14 4
167.832 199.387 3.11601 18 8
170.986 199.387 0 14 4
170.985 199.387 3.11479 18 8
174.139 196.231 0 14 4
174.139 196.231 3.11387 18 8
172.562 197.809 1.53975 18 8
174.139 199.387 0 14 4
174.139 199.387 3.11379 18 8
175.716 197.809 1.53916 18 8
177.294 196.231 0 14 4
177.293 196.231 3.11305 18 8
180.449 196.231 0 14 4
180.448 196.231 3.11239 18 8
177.294 199.387 0 14 4
177.293 199.387 3.11298 18 8
178.871 197.809 1.53869 18 8
180.449 199.387 0 14 4
180.448 199.387 3.11232 18 8
183.605 196.231 0 14 4
183.604 196.231 3.11186 18 8
182.026 197.809 1.5383 18 8
183.604 199.388 0 14 4
183.604 199.388 3.11179 18 8
185.182 197.809 1.53799 18 8
186.761 196.231 0 14 4
186.76 196.231 3.11143 18 8
189.917 196.231 0 14 4
189.917 196.231 3.11111 18 8
186.761 199.388 0 14 4
186.76 199.388 3.11136 18 8
188.339 197.809 1.53775 18 8
189.917 199.388 0 14 4
189.917 199.388 3.11104 18 8
193.074 196.231 0 14 4
193.074 196.231 3.11088 18 8
191.495 197.809 1.53757 18 8
193.074 199.388 0 14 4
193.074 199.388 3.11081 18 8
194.652 197.809 1.53745 18 8
196.231 196.231 0 14 4
196.231 196.231 3.11073 18 8
199.388 196.231 0 14 4
199.388 196.231 3.11066 18 8
196.231 199.388 0 14 4
196.231 199.388 3.11066 18 8
197.809 197.809 1.53738 18 8