ITEM: TIMESTEP
5
ITEM: NUMBER OF ATOMS
104520
ITEM: BOX BOUNDS pp pp pp
1.4032400000000001e+02 2.5846600000000001e+02
1.4032400000000001e+02 2.5846600000000001e+02
-1.0000000000000000e+01 2.4029500000000002e+02
ITEM: ATOMS x y z type c_cnum
186.863 152.242 0.127515 12 2
189.933 152.209 0.0973029 12 2
193.077 152.104 0 13 3
196.23 152.108 0 14 4
199.387 152.11 0 14 4
202.546 152.165 0.0500197 14 4
205.703 152.146 0.128565 13 3
208.844 152.214 0.107012 12 2
211.914 152.239 0.129686 12 2
180.46 155.252 0 13 3
183.618 155.256 0 14 4
186.772 155.254 0 14 4
189.926 155.251 0 14 4
193.079 155.246 0 14 4
196.232 155.245 0 14 4
199.387 155.246 0 14 4
202.542 155.244 0 14 4
205.696 155.244 0 14 4
208.848 155.248 0 14 4
212.002 155.25 0 14 4
215.146 155.283 0.0371458 14 4
218.297 155.26 0.0872412 13 3
221.424 155.32 0.068342 12 2
174.152 158.397 0 13 3
177.312 158.403 0 14 4
180.464 158.398 0 14 4
183.616 158.396 0 14 4
186.77 158.394 0 14 4
189.924 158.392 0 14 4
193.078 158.389 0 14 4
196.232 158.388 0 14 4
199.387 158.388 0 14 4
202.542 158.387 0 14 4
205.696 158.388 0 14 4
208.85 158.39 0 14 4
212.003 158.392 0 14 4
215.155 158.395 0 14 4
218.308 158.399 0 14 4
221.472 158.39 0.0284165 14 4
224.596 158.443 0.0969168 13 3
171.012 161.552 0 13 3
174.158 161.545 0 14 4
177.309 161.545 0 14 4
180.461 161.542 0 14 4
183.614 161.54 0 14 4
186.768 161.538 0 14 4
189.923 161.537 0 14 4
193.077 161.535 0 14 4
196.232 161.534 0 14 4
199.387 161.534 0 14 4
202.542 161.534 0 14 4
205.697 161.534 0 14 4
208.851 161.536 0 14 4
212.005 161.538 0 14 4
215.159 161.54 0 14 4
218.312 161.542 0 14 4
221.465 161.544 0 14 4
224.614 161.548 0 14 4
227.748 161.588 0.0299849 14 4
230.876 161.589 0.0930941 13 3
167.863 164.711 0 13 3
171.01 164.702 0 14 4
174.157 164.695 0 14 4
177.307 164.692 0 14 4
180.459 164.69 0 14 4
183.613 164.688 0 14 4
186.767 164.686 0 14 4
189.921 164.685 0 14 4
193.077 164.684 0 14 4
196.232 164.683 0 14 4
199.387 164.683 0 14 4
202.542 164.683 0 14 4
205.698 164.683 0 14 4
208.852 164.684 0 14 4
212.007 164.686 0 14 4
215.161 164.687 0 14 4
218.315 164.689 0 14 4
221.468 164.692 0 14 4
224.619 164.695 0 14 4
227.769 164.7 0 14 4
230.939 164.701 0.0404765 14 4
233.996 164.783 0.13078 13 3
164.711 167.863 0 13 3
167.857 167.857 0 14 4
171.005 167.851 0 14 4
174.154 167.845 0 14 4
177.305 167.842 0 14 4
180.457 167.839 0 14 4
183.611 167.838 0 14 4
186.765 167.836 0 14 4
189.921 167.835 0 14 4
193.076 167.834 0 14 4
196.231 167.834 0 14 4
199.387 167.834 0 14 4
202.543 167.834 0 14 4
205.698 167.834 0 14 4
208.854 167.835 0 14 4
212.009 167.836 0 14 4
215.164 167.837 0 14 4
218.318 167.839 0 14 4
221.471 167.841 0 14 4
224.623 167.843 0 14 4
227.775 167.846 0 14 4
230.925 167.85 0 14 4
234.082 167.845 0.0514892 14 4
237.142 167.933 0.129836 13 3
161.552 171.012 0 13 3
164.702 171.01 0 14 4
167.851 171.005 0 14 4
171 171 0 14 4
174.151 170.996 0 14 4
177.303 170.993 0 14 4
180.456 170.991 0 14 4
183.61 170.989 0 14 4
186.765 170.988 0 14 4
189.92 170.987 0 14 4
193.075 170.987 0 14 4
196.231 170.986 0 14 4
199.387 170.986 0 14 4
202.543 170.986 0 14 4
205.699 170.986 0 14 4
208.855 170.987 0 14 4
212.01 170.987 0 14 4
215.165 170.988 0 14 4
218.32 170.99 0 14 4
221.474 170.991 0 14 4
224.627 170.993 0 14 4
227.778 170.996 0 14 4
230.929 170.999 0 14 4
234.076 171.003 0 14 4
237.232 171.002 0.0544781 14 4
240.252 171.116 0.116459 12 2
158.397 174.152 0 13 3
161.545 174.158 0 14 4
164.695 174.157 0 14 4
167.845 174.154 0 14 4
170.996 174.151 0 14 4
174.148 174.148 0 14 4
177.301 174.146 0 14 4
180.454 174.144 0 14 4
183.609 174.142 0 14 4
186.764 174.141 0 14 4
189.919 174.14 0 14 4
193.075 174.14 0 14 4
196.231 174.139 0 14 4
199.387 174.139 0 14 4
202.544 174.139 0 14 4
205.7 174.14 0 14 4
208.856 174.14 0 14 4
212.011 174.14 0 14 4
215.167 174.141 0 14 4
218.322 174.142 0 14 4
221.476 174.144 0 14 4
224.629 174.145 0 14 4
227.781 174.147 0 14 4
230.932 174.15 0 14 4
234.08 174.154 0 14 4
237.236 174.161 -0.00215619 14 4
240.376 174.163 0 13 3
158.403 177.312 0 14 4
161.545 177.309 0 14 4
164.692 177.307 0 14 4
167.842 177.305 0 14 4
170.993 177.303 0 14 4
174.146 177.301 0 14 4
177.299 177.299 0 14 4
180.453 177.297 0 14 4
183.608 177.296 0 14 4
186.763 177.295 0 14 4
189.919 177.295 0 14 4
193.075 177.294 0 14 4
196.231 177.294 0 14 4
199.387 177.294 0 14 4
202.544 177.294 0 14 4
205.7 177.294 0 14 4
208.856 177.294 0 14 4
212.012 177.295 0 14 4
215.168 177.295 0 14 4
218.323 177.296 0 14 4
221.477 177.297 0 14 4
224.631 177.298 0 14 4
227.783 177.3 0 14 4
230.934 177.303 0 14 4
234.084 177.306 0 14 4
237.233 177.309 0 14 4
240.398 177.301 0.043475 14 4
243.445 177.388 0.134019 13 3
155.252 180.46 0 13 3
158.398 180.464 0 14 4
161.542 180.461 0 14 4
164.69 180.459 0 14 4
167.839 180.457 0 14 4
170.991 180.456 0 14 4
174.144 180.454 0 14 4
177.297 180.453 0 14 4
180.452 180.452 0 14 4
183.607 180.451 0 14 4
186.762 180.45 0 14 4
189.918 180.45 0 14 4
193.075 180.449 0 14 4
196.231 180.449 0 14 4
199.387 180.449 0 14 4
202.544 180.449 0 14 4
205.7 180.449 0 14 4
208.857 180.449 0 14 4
212.013 180.449 0 14 4
215.169 180.45 0 14 4
218.324 180.45 0 14 4
221.479 180.451 0 14 4
224.632 180.452 0 14 4
227.785 180.454 0 14 4
230.937 180.456 0 14 4
234.087 180.458 0 14 4
237.235 180.461 0 14 4
240.38 180.463 0 14 4
243.518 180.467 0 14 4
155.256 183.618 0 14 4
158.396 183.616 0 14 4
161.54 183.614 0 14 4
164.688 183.613 0 14 4
167.838 183.611 0 14 4
170.989 183.61 0 14 4
174.142 183.609 0 14 4
177.296 183.608 0 14 4
180.451 183.607 0 14 4
183.606 183.606 0 14 4
186.762 183.606 0 14 4
189.918 183.605 0 14 4
193.074 183.605 0 14 4
196.231 183.605 0 14 4
199.388 183.604 0 14 4
202.544 183.604 0 14 4
205.701 183.604 0 14 4
208.857 183.605 0 14 4
212.013 183.605 0 14 4
215.169 183.605 0 14 4
218.325 183.606 0 14 4
221.48 183.606 0 14 4
224.634 183.607 0 14 4
227.787 183.608 0 14 4
230.938 183.61 0 14 4
234.089 183.612 0 14 4
237.237 183.614 0 14 4
240.382 183.617 0 14 4
243.555 183.6 0.0511453 15 5
246.536 183.709 0.136439 13 3
152.116 186.767 0 12 2
155.254 186.772 0 14 4
158.394 186.77 0 14 4
161.538 186.768 0 14 4
164.686 186.767 0 14 4
167.836 186.765 0 14 4
170.988 186.765 0 14 4
174.141 186.764 0 14 4
177.295 186.763 0 14 4
180.45 186.762 0 14 4
183.606 186.762 0 14 4
186.761 186.761 0 14 4
189.918 186.761 0 14 4
193.074 186.761 0 14 4
196.231 186.761 0 14 4
199.388 186.761 0 14 4
202.544 186.761 0 14 4
205.701 186.761 0 14 4
208.858 186.761 0 14 4
212.014 186.761 0 14 4
215.17 186.761 0 14 4
218.325 186.762 0 14 4
221.48 186.762 0 14 4
224.634 186.763 0 14 4
227.788 186.764 0 14 4
230.94 186.765 0 14 4
234.09 186.766 0 14 4
237.239 186.768 0 14 4
240.385 186.771 0 14 4
243.536 186.769 0.0131222 14 4
246.62 186.767 0.138011 13 3
152.116 189.925 0 12 2
155.251 189.926 0 14 4
158.392 189.924 0 14 4
161.537 189.923 0 14 4
164.685 189.921 0 14 4
167.835 189.921 0 14 4
170.987 189.92 0 14 4
174.14 189.919 0 14 4
177.295 189.919 0 14 4
180.45 189.918 0 14 4
183.605 189.918 0 14 4
186.761 189.918 0 14 4
189.917 189.917 0 14 4
193.074 189.917 0 14 4
196.231 189.917 0 14 4
199.388 189.917 0 14 4
202.544 189.917 0 14 4
205.701 189.917 0 14 4
208.858 189.917 0 14 4
212.014 189.917 0 14 4
215.17 189.917 0 14 4
218.326 189.918 0 14 4
221.481 189.918 0 14 4
224.635 189.919 0 14 4
227.789 189.919 0 14 4
230.941 189.92 0 14 4
234.092 189.921 0 14 4
237.241 189.923 0 14 4
240.388 189.925 0 14 4
243.532 189.926 0 14 4
246.614 189.923 0.0493229 14 4
152.104 193.077 0 13 3
155.246 193.079 0 14 4
158.389 193.078 0 14 4
161.535 193.077 0 14 4
164.684 193.077 0 14 4
167.834 193.076 0 14 4
170.987 193.075 0 14 4
174.14 193.075 0 14 4
177.294 193.075 0 14 4
180.449 193.075 0 14 4
183.605 193.074 0 14 4
186.761 193.074 0 14 4
189.917 193.074 0 14 4
193.074 193.074 0 14 4
196.231 193.074 0 14 4
199.388 193.074 0 14 4
202.545 193.074 0 14 4
205.701 193.074 0 14 4
208.858 193.074 0 14 4
212.014 193.074 0 14 4
215.171 193.074 0 14 4
218.326 193.074 0 14 4
221.481 193.074 0 14 4
224.636 193.075 0 14 4
227.789 193.075 0 14 4
230.942 193.076 0 14 4
234.093 193.076 0 14 4
237.243 193.077 0 14 4
240.39 193.078 0 14 4
243.535 193.08 0 14 4
246.676 193.081 0 14 4
152.108 196.23 0 14 4
155.245 196.232 0 14 4
158.388 196.232 0 14 4
161.534 196.232 0 14 4
164.683 196.232 0 14 4
167.834 196.231 0 14 4
170.986 196.231 0 14 4
174.139 196.231 0 14 4
177.294 196.231 0 14 4
180.449 196.231 0 14 4
183.605 196.231 0 14 4
186.761 196.231 0 14 4
189.917 196.231 0 14 4
193.074 196.231 0 14 4
196.231 196.231 0 14 4
199.388 196.231 0 14 4
202.545 196.231 0 14 4
205.701 196.231 0 14 4
208.858 196.231 0 14 4
212.015 196.231 0 14 4
215.171 196.231 0 14 4
218.326 196.231 0 14 4
221.482 196.231 0 14 4
224.636 196.231 0 14 4
227.79 196.231 0 14 4
230.943 196.231 0 14 4
234.094 196.232 0 14 4
237.244 196.232 0 14 4
240.392 196.233 0 14 4
243.537 196.233 0 14 4
246.68 196.232 0 14 4
152.11 199.387 0 14 4
155.246 199.387 0 14 4
158.388 199.387 0 14 4
161.534 199.387 0 14 4
164.683 199.387 0 14 4
167.834 199.387 0 14 4
170.986 199.387 0 14 4
174.139 199.387 0 14 4
177.294 199.387 0 14 4
180.449 199.387 0 14 4
183.604 199.388 0 14 4
186.761 199.388 0 14 4
189.917 199.388 0 14 4
193.074 199.388 0 14 4
196.231 199.388 0 14 4
199.388 199.388 0 14 4
202.545 199.388 0 14 4
205.702 199.388 0 14 4
208.858 199.388 0 14 4
212.015 199.388 0 14 4
215.171 199.388 0 14 4
218.327 199.388 0 14 4
221.482 199.388 0 14 4
224.636 199.387 0 14 4
227.79 199.387 0 14 4
230.943 199.387 0 14 4
234.094 199.387 0 14 4
237.244 199.387 0 14 4
240.392 199.387 0 14 4
243.537 199.386 0 14 4
246.679 199.385 0 14 4
152.107 202.544 0 14 4
155.244 202.542 0 14 4
158.387 202.542 0 14 4
161.534 202.542 0 14 4
164.683 202.542 0 14 4
167.834 202.543 0 14 4
170.986 202.543 0 14 4
174.139 202.544 0 14 4
177.294 202.544 0 14 4
180.449 202.544 0 14 4
183.604 202.544 0 14 4
186.761 202.544 0 14 4
189.917 202.544 0 14 4
193.074 202.545 0 14 4
196.231 202.545 0 14 4
199.388 202.545 0 14 4
202.545 202.545 0 14 4
205.702 202.545 0 14 4
208.858 202.545 0 14 4
212.015 202.545 0 14 4
215.171 202.545 0 14 4
218.327 202.544 0 14 4
221.482 202.544 0 14 4
224.636 202.544 0 14 4
227.79 202.544 0 14 4
230.943 202.543 0 14 4
234.094 202.542 0 14 4
237.244 202.542 0 14 4
240.392 202.541 0 14 4
243.537 202.54 0 14 4
246.632 202.543 0.0513876 14 4
152.102 205.697 0 13 3
155.244 205.696 0 14 4
158.388 205.696 0 14 4
161.534 205.697 0 14 4
164.683 205.698 0 14 4
167.834 205.698 0 14 4
170.986 205.699 0 14 4
174.14 205.7 0 14 4
177.294 205.7 0 14 4
180.449 205.7 0 14 4
183.604 205.701 0 14 4
186.761 205.701 0 14 4
189.917 205.701 0 14 4
193.074 205.701 0 14 4
196.231 205.701 0 14 4
199.388 205.702 0 14 4
202.545 205.702 0 14 4
205.702 205.702 0 14 4
208.858 205.702 0 14 4
212.015 205.701 0 14 4
215.171 205.701 0 14 4
218.327 205.701 0 14 4
221.482 205.701 0 14 4
224.636 205.7 0 14 4
227.79 205.7 0 14 4
230.942 205.699 0 14 4
234.094 205.698 0 14 4
237.243 205.697 0 14 4
240.391 205.696 0 14 4
243.535 205.695 0 14 4
246.623 205.694 0.0563848 14 4
152.113 208.849 0 12 2
155.248 208.848 0 14 4
158.39 208.85 0 14 4
161.536 208.851 0 14 4
164.684 208.852 0 14 4
167.835 208.854 0 14 4
170.987 208.855 0 14 4
174.14 208.856 0 14 4
177.294 208.856 0 14 4
180.449 208.857 0 14 4
183.605 208.857 0 14 4
186.761 208.858 0 14 4
189.917 208.858 0 14 4
193.074 208.858 0 14 4
196.231 208.858 0 14 4
199.388 208.858 0 14 4
202.545 208.858 0 14 4
205.702 208.858 0 14 4
208.858 208.858 0 14 4
212.015 208.858 0 14 4
215.171 208.858 0 14 4
218.327 208.858 0 14 4
221.482 208.857 0 14 4
224.636 208.857 0 14 4
227.789 208.856 0 14 4
230.942 208.854 0 14 4
234.093 208.853 0 14 4
237.242 208.851 0 14 4
240.389 208.85 0 14 4
243.533 208.848 0 14 4
246.613 208.842 0.0469668 14 4
152.112 212.009 0 12 2
155.25 212.002 0 14 4
158.392 212.003 0 14 4
161.538 212.005 0 14 4
164.686 212.007 0 14 4
167.836 212.009 0 14 4
170.987 212.01 0 14 4
174.14 212.011 0 14 4
177.295 212.012 0 14 4
180.449 212.013 0 14 4
183.605 212.013 0 14 4
186.761 212.014 0 14 4
189.917 212.014 0 14 4
193.074 212.014 0 14 4
196.231 212.015 0 14 4
199.388 212.015 0 14 4
202.545 212.015 0 14 4
205.701 212.015 0 14 4
208.858 212.015 0 14 4
212.015 212.015 0 14 4
215.171 212.014 0 14 4
218.326 212.014 0 14 4
221.481 212.014 0 14 4
224.635 212.013 0 14 4
227.789 212.012 0 14 4
230.941 212.01 0 14 4
234.091 212.008 0 14 4
237.24 212.006 0 14 4
240.387 212.003 0 14 4
243.539 212.005 0.00375175 14 4
246.673 212.002 0 13 3
155.253 215.154 0 14 4
158.395 215.155 0 14 4
161.54 215.159 0 14 4
164.687 215.161 0 14 4
167.837 215.164 0 14 4
170.988 215.165 0 14 4
174.141 215.167 0 14 4
177.295 215.168 0 14 4
180.45 215.169 0 14 4
183.605 215.169 0 14 4
186.761 215.17 0 14 4
189.917 215.17 0 14 4
193.074 215.171 0 14 4
196.231 215.171 0 14 4
199.388 215.171 0 14 4
202.545 215.171 0 14 4
205.701 215.171 0 14 4
208.858 215.171 0 14 4
212.014 215.171 0 14 4
215.17 215.17 0 14 4
218.326 215.17 0 14 4
221.481 215.169 0 14 4
224.635 215.168 0 14 4
227.788 215.167 0 14 4
230.939 215.165 0 14 4
234.09 215.163 0 14 4
237.238 215.16 0 14 4
240.384 215.156 0 14 4
243.56 215.17 0.0545084 15 5
246.546 215.07 0.128378 13 3
155.258 218.305 0 13 3
158.399 218.308 0 14 4
161.542 218.312 0 14 4
164.689 218.315 0 14 4
167.839 218.318 0 14 4
170.99 218.32 0 14 4
174.142 218.322 0 14 4
177.296 218.323 0 14 4
180.45 218.324 0 14 4
183.606 218.325 0 14 4
186.762 218.325 0 14 4
189.918 218.326 0 14 4
193.074 218.326 0 14 4
196.231 218.326 0 14 4
199.388 218.327 0 14 4
202.544 218.327 0 14 4
205.701 218.327 0 14 4
208.858 218.327 0 14 4
212.014 218.326 0 14 4
215.17 218.326 0 14 4
218.326 218.326 0 14 4
221.48 218.325 0 14 4
224.634 218.324 0 14 4
227.787 218.322 0 14 4
230.938 218.32 0 14 4
234.088 218.317 0 14 4
237.235 218.313 0 14 4
240.381 218.309 0 14 4
243.475 218.31 0.055696 14 4
155.266 221.458 0 12 2
158.401 221.463 0 14 4
161.544 221.465 0 14 4
164.692 221.468 0 14 4
167.841 221.471 0 14 4
170.991 221.474 0 14 4
174.144 221.476 0 14 4
177.297 221.477 0 14 4
180.451 221.479 0 14 4
183.606 221.48 0 14 4
186.762 221.48 0 14 4
189.918 221.481 0 14 4
193.074 221.481 0 14 4
196.231 221.482 0 14 4
199.388 221.482 0 14 4
202.544 221.482 0 14 4
205.701 221.482 0 14 4
208.857 221.482 0 14 4
212.014 221.481 0 14 4
215.169 221.481 0 14 4
218.325 221.48 0 14 4
221.48 221.48 0 14 4
224.633 221.478 0 14 4
227.786 221.477 0 14 4
230.936 221.474 0 14 4
234.085 221.47 0 14 4
237.232 221.465 0 14 4
240.41 221.478 0.0506957 14 4
243.438 221.392 0.138979 13 3
158.397 224.618 0 13 3
161.548 224.614 0 14 4
164.695 224.619 0 14 4
167.843 224.623 0 14 4
170.993 224.627 0 14 4
174.145 224.629 0 14 4
177.298 224.631 0 14 4
180.452 224.632 0 14 4
183.607 224.634 0 14 4
186.763 224.634 0 14 4
189.919 224.635 0 14 4
193.075 224.636 0 14 4
196.231 224.636 0 14 4
199.387 224.636 0 14 4
202.544 224.636 0 14 4
205.7 224.636 0 14 4
208.857 224.636 0 14 4
212.013 224.635 0 14 4
215.168 224.635 0 14 4
218.324 224.634 0 14 4
221.478 224.633 0 14 4
224.632 224.632 0 14 4
227.784 224.63 0 14 4
230.935 224.628 0 14 4
234.083 224.623 0 14 4
237.228 224.617 0 14 4
240.369 224.608 0 14 4
161.557 227.762 0 14 4
164.7 227.769 0 14 4
167.846 227.775 0 14 4
170.996 227.778 0 14 4
174.147 227.781 0 14 4
177.3 227.783 0 14 4
180.454 227.785 0 14 4
183.608 227.787 0 14 4
186.764 227.788 0 14 4
189.919 227.789 0 14 4
193.075 227.789 0 14 4
196.231 227.79 0 14 4
199.387 227.79 0 14 4
202.544 227.79 0 14 4
205.7 227.79 0 14 4
208.856 227.789 0 14 4
212.012 227.789 0 14 4
215.167 227.788 0 14 4
218.322 227.787 0 14 4
221.477 227.786 0 14 4
224.63 227.784 0 14 4
227.783 227.783 0 14 4
230.933 227.78 0 14 4
234.081 227.776 0 14 4
237.238 227.774 0.0492274 14 4
240.296 227.682 0.128667 13 3
161.555 230.916 0 13 3
164.702 230.92 0 14 4
167.85 230.925 0 14 4
170.999 230.929 0 14 4
174.15 230.932 0 14 4
177.303 230.934 0 14 4
180.456 230.937 0 14 4
183.61 230.938 0 14 4
186.765 230.94 0 14 4
189.92 230.941 0 14 4
193.076 230.942 0 14 4
196.231 230.943 0 14 4
199.387 230.943 0 14 4
202.543 230.943 0 14 4
205.699 230.942 0 14 4
208.854 230.942 0 14 4
212.01 230.941 0 14 4
215.165 230.939 0 14 4
218.32 230.938 0 14 4
221.474 230.936 0 14 4
224.628 230.935 0 14 4
227.78 230.933 0 14 4
230.93 230.93 0 14 4
234.088 230.935 0.0471177 14 4
237.153 230.845 0.132236 13 3
164.702 234.072 0 13 3
167.853 234.073 0 14 4
171.003 234.076 0 14 4
174.154 234.08 0 14 4
177.306 234.084 0 14 4
180.458 234.087 0 14 4
183.612 234.089 0 14 4
186.766 234.09 0 14 4
189.921 234.092 0 14 4
193.076 234.093 0 14 4
196.232 234.094 0 14 4
199.387 234.094 0 14 4
202.542 234.094 0 14 4
205.698 234.094 0 14 4
208.853 234.093 0 14 4
212.008 234.091 0 14 4
215.163 234.09 0 14 4
218.317 234.088 0 14 4
221.47 234.085 0 14 4
224.623 234.083 0 14 4
227.776 234.081 0 14 4
230.935 234.088 0.0470995 14 4
234.001 234.001 0.132709 13 3
167.856 237.221 0 13 3
171.01 237.22 0 14 4
174.16 237.227 0 14 4
177.309 237.233 0 14 4
180.461 237.235 0 14 4
183.614 237.237 0 14 4
186.768 237.239 0 14 4
189.923 237.241 0 14 4
193.077 237.243 0 14 4
196.232 237.244 0 14 4
199.387 237.244 0 14 4
202.542 237.244 0 14 4
205.697 237.243 0 14 4
208.851 237.242 0 14 4
212.006 237.24 0 14 4
215.16 237.238 0 14 4
218.313 237.235 0 14 4
221.465 237.232 0 14 4
224.617 237.228 0 14 4
227.776 237.237 0.0478317 14 4
230.845 237.152 0.132032 13 3
171.075 240.318 0.0438455 12 2
174.163 240.376 0 13 3
177.31 240.381 0 14 4
180.463 240.38 0 14 4
183.617 240.382 0 14 4
186.771 240.385 0 14 4
189.925 240.388 0 14 4
193.078 240.39 0 14 4
196.233 240.392 0 14 4
199.387 240.392 0 14 4
202.541 240.392 0 14 4
205.696 240.391 0 14 4
208.85 240.389 0 14 4
212.003 240.387 0 14 4
215.156 240.384 0 14 4
218.309 240.381 0 14 4
221.459 240.377 0 14 4
224.609 240.322 0.0462986 14 4
227.678 240.291 0.131954 13 3
177.306 243.526 0 13 3
180.467 243.518 0 14 4
183.621 243.523 0 14 4
186.774 243.528 0 14 4
189.926 243.532 0 14 4
193.08 243.535 0 14 4
196.233 243.537 0 14 4
199.386 243.537 0 14 4
202.54 243.537 0 14 4
205.695 243.535 0 14 4
208.848 243.533 0 14 4
212.001 243.531 0 14 4
215.153 243.527 0 14 4
218.29 243.492 0.0316391 14 4
221.431 243.484 0.0965565 13 3
183.708 246.544 0.121402 12 2
186.773 246.669 0 13 3
189.927 246.672 0 14 4
193.081 246.676 0 14 4
196.232 246.68 0 14 4
199.385 246.679 0 14 4
202.541 246.677 0 14 4
205.694 246.676 0 14 4
208.851 246.615 0.049682 14 4
212.008 246.619 0.139363 13 3
215.064 246.543 0.129433 12 2
194.695 150.585 1.62149 14 4
197.815 150.58 1.60786 14 4
200.961 150.583 1.60616 14 4
204.087 150.591 1.6427 14 4
182.076 153.743 1.62586 14 4
185.193 153.729 1.62448 16 6
186.817 152.195 3.16539 14 4
188.372 153.757 1.62116 18 8
189.936 152.138 3.14693 14 4
191.534 153.701 1.59597 18 8
193.077 152.106 3.13806 16 6
194.645 153.656 1.56325 18 8
196.23 152.11 3.13642 18 8
197.805 153.667 1.5504 18 8
199.387 152.113 3.13569 18 8
200.952 153.681 1.56417 18 8
202.544 152.109 3.13628 18 8
204.12 153.684 1.60334 18 8
205.709 152.124 3.16548 16 6
207.261 153.717 1.6174 18 8
208.844 152.132 3.14981 14 4
210.415 153.763 1.63069 18 8
211.963 152.191 3.16804 14 4
213.592 153.734 1.64232 16 6
216.667 153.759 1.67242 14 4
180.491 155.315 3.15025 16 6
183.622 155.258 3.13572 18 8
186.774 155.253 3.13118 18 8
189.927 155.247 3.12846 18 8
193.078 155.244 3.12714 18 8
196.231 155.243 3.12645 18 8
199.387 155.243 3.12619 18 8
202.543 155.242 3.12633 18 8
205.696 155.242 3.1269 18 8
208.848 155.244 3.12802 18 8
212.022 155.25 3.15891 18 8
215.153 155.284 3.18468 18 8
218.306 155.287 3.15986 16 6
221.374 155.303 3.16448 14 4
175.804 156.907 1.64551 14 4
174.205 158.452 3.15601 16 6
177.354 158.426 3.15081 18 8
178.893 156.832 1.55312 16 6
180.465 158.397 3.12874 18 8
182.04 156.825 1.54911 18 8
183.616 158.393 3.12585 18 8
185.194 156.824 1.54816 18 8
186.77 158.391 3.12452 18 8
188.348 156.821 1.54729 18 8
191.502 156.818 1.54663 18 8
189.924 158.389 3.12347 18 8
194.655 156.816 1.5462 18 8
193.078 158.387 3.12278 18 8
197.809 156.815 1.54601 18 8
196.232 158.385 3.12231 18 8
199.387 158.385 3.12213 18 8
200.965 156.815 1.54598 18 8
202.542 158.385 3.12222 18 8
204.119 156.815 1.54611 18 8
205.696 158.385 3.12259 18 8
207.272 156.816 1.54647 18 8
208.85 158.387 3.12321 18 8
210.426 156.819 1.54711 18 8
213.578 156.822 1.54794 18 8
212.003 158.389 3.12421 18 8
216.729 156.827 1.54865 18 8
215.16 158.393 3.12914 18 8
219.88 156.834 1.55054 18 8
218.308 158.398 3.12754 18 8
221.455 158.408 3.14962 18 8
223.005 156.869 1.66053 16 6
224.594 158.457 3.16741 16 6
172.623 160.005 1.60771 16 6
171.022 161.558 3.13986 16 6
175.734 159.973 1.54856 18 8
174.159 161.546 3.12993 18 8
177.308 161.543 3.12536 18 8
178.887 159.971 1.54733 18 8
180.461 161.54 3.12349 18 8
182.039 159.968 1.54608 18 8
183.614 161.538 3.12208 18 8
185.192 159.966 1.54544 18 8
186.768 161.536 3.12116 18 8
188.346 159.964 1.5449 18 8
191.5 159.962 1.54446 18 8
189.922 161.535 3.12047 18 8
194.655 159.961 1.54414 18 8
193.077 161.533 3.11997 18 8
197.81 159.96 1.54399 18 8
196.232 161.532 3.11964 18 8
199.387 161.532 3.1195 18 8
200.965 159.959 1.54396 18 8
202.542 161.532 3.11957 18 8
204.119 159.96 1.54407 18 8
205.697 161.532 3.11984 18 8
207.273 159.961 1.54435 18 8
208.851 161.533 3.1203 18 8
210.427 159.963 1.54476 18 8
213.581 159.965 1.54528 18 8
212.006 161.535 3.12097 18 8
216.734 159.968 1.54591 18 8
215.159 161.538 3.12183 18 8
219.887 159.971 1.5469 18 8
218.313 161.54 3.12301 18 8
221.466 161.542 3.12471 18 8
223.04 159.972 1.54829 18 8
224.615 161.531 3.14108 18 8
226.2 160.015 1.63362 16 6
227.736 161.602 3.16667 18 8
229.247 160.054 1.66877 14 4
230.865 161.599 3.17123 16 6
169.472 163.164 1.60302 16 6
167.866 164.714 3.13512 16 6
172.585 163.124 1.54771 18 8
171.01 164.702 3.12756 18 8
175.732 163.118 1.54612 18 8
174.156 164.694 3.12405 18 8
177.306 164.69 3.12199 18 8
178.884 163.116 1.54511 18 8
180.458 164.688 3.12068 18 8
182.036 163.114 1.54428 18 8
183.612 164.686 3.11966 18 8
185.19 163.112 1.54369 18 8
186.766 164.684 3.1189 18 8
188.344 163.111 1.54323 18 8
191.499 163.109 1.54288 18 8
189.921 164.683 3.11833 18 8
194.654 163.108 1.54264 18 8
193.076 164.682 3.11792 18 8
197.809 163.108 1.54251 18 8
196.232 164.681 3.11765 18 8
199.387 164.681 3.11755 18 8
200.965 163.107 1.54249 18 8
202.543 164.681 3.1176 18 8
204.12 163.108 1.54258 18 8
205.698 164.682 3.11781 18 8
207.275 163.109 1.54279 18 8
208.853 164.682 3.11819 18 8
210.429 163.11 1.54312 18 8
213.583 163.112 1.54356 18 8
212.008 164.684 3.11873 18 8
216.737 163.114 1.54413 18 8
215.162 164.685 3.11944 18 8
219.89 163.116 1.54488 18 8
218.316 164.687 3.12037 18 8
221.469 164.689 3.12164 18 8
223.042 163.119 1.54581 18 8
224.62 164.693 3.12354 18 8
226.191 163.124 1.54745 18 8
227.77 164.698 3.12614 18 8
229.34 163.13 1.54936 18 8
230.908 164.7 3.15739 18 8
232.456 163.163 1.66593 16 6
234.029 164.744 3.1797 16 6
166.287 166.287 1.5501 16 6
169.434 166.28 1.54762 18 8
172.581 166.273 1.54572 18 8
175.73 166.268 1.5445 18 8
178.882 166.265 1.54361 18 8
182.035 166.263 1.54292 18 8
185.189 166.261 1.54239 18 8
188.343 166.26 1.54199 18 8
191.498 166.259 1.54169 18 8
194.654 166.258 1.54148 18 8
197.809 166.258 1.54137 18 8
200.965 166.257 1.54135 18 8
204.12 166.258 1.54143 18 8
207.276 166.258 1.54161 18 8
210.431 166.259 1.54188 18 8
213.585 166.261 1.54226 18 8
216.74 166.262 1.54276 18 8
219.893 166.264 1.5434 18 8
223.046 166.267 1.54423 18 8
226.197 166.27 1.54534 18 8
229.348 166.274 1.54672 18 8
232.474 166.295 1.6146 18 8
235.617 166.309 1.66756 16 6
163.164 169.472 1.60301 16 6
164.714 167.866 3.13512 16 6
166.28 169.434 1.54762 18 8
169.428 169.428 1.54575 18 8
167.856 167.856 3.1269 18 8
171.004 167.849 3.1237 18 8
172.577 169.423 1.54434 18 8
174.153 167.844 3.12148 18 8
175.728 169.418 1.54328 18 8
177.304 167.84 3.1199 18 8
178.88 169.416 1.54248 18 8
180.456 167.838 3.11875 18 8
182.033 169.414 1.54187 18 8
183.61 167.836 3.11787 18 8
185.187 169.412 1.54139 18 8
186.765 167.835 3.1172 18 8
188.342 169.411 1.54102 18 8
189.92 167.834 3.11669 18 8
191.498 169.41 1.54075 18 8
193.076 167.833 3.11633 18 8
194.653 169.41 1.54057 18 8
196.231 167.833 3.11611 18 8
197.809 169.409 1.54047 18 8
199.387 167.832 3.11601 18 8
200.965 169.409 1.54046 18 8
202.543 167.832 3.11606 18 8
204.121 169.409 1.54052 18 8
205.699 167.833 3.11624 18 8
207.277 169.41 1.54068 18 8
208.854 167.833 3.11656 18 8
210.432 169.411 1.54092 18 8
212.009 167.834 3.11702 18 8
213.587 169.412 1.54125 18 8
215.164 167.835 3.11765 18 8
216.742 169.413 1.54169 18 8
218.319 167.837 3.11846 18 8
219.896 169.414 1.54226 18 8
221.472 167.839 3.11953 18 8
223.049 169.417 1.54299 18 8
224.625 167.841 3.12092 18 8
226.201 169.419 1.54392 18 8
227.776 167.844 3.12273 18 8
229.353 169.422 1.54508 18 8
230.926 167.848 3.12554 18 8
232.501 169.426 1.54663 18 8
234.071 167.856 3.1328 18 8
235.631 169.455 1.61425 18 8
237.181 167.899 3.17927 16 6
238.757 169.475 1.67344 16 6
160.003 172.624 1.60907 16 6
161.558 171.022 3.13986 16 6
163.124 172.585 1.54771 18 8
164.702 171.01 3.12756 18 8
166.273 172.581 1.54572 18 8
167.849 171.004 3.1237 18 8
169.423 172.577 1.54434 18 8
170.999 170.999 3.12137 18 8
172.573 172.573 1.54321 18 8
174.15 170.995 3.11964 18 8
175.725 172.57 1.5423 18 8
177.302 170.992 3.1183 18 8
180.455 170.99 3.11727 18 8
178.878 172.568 1.54159 18 8
183.609 170.988 3.11647 18 8
182.032 172.566 1.54102 18 8
186.764 170.987 3.11586 18 8
185.186 172.565 1.54058 18 8
188.342 172.564 1.54025 18 8
189.919 170.986 3.1154 18 8
191.497 172.563 1.54 18 8
193.075 170.985 3.11507 18 8
194.653 172.563 1.53984 18 8
196.231 170.985 3.11487 18 8
197.809 172.562 1.53975 18 8
199.387 170.985 3.11479 18 8
202.543 170.985 3.11482 18 8
200.965 172.562 1.53973 18 8
205.699 170.985 3.11498 18 8
204.121 172.562 1.53979 18 8
208.855 170.986 3.11526 18 8
207.277 172.563 1.53993 18 8
210.433 172.563 1.54014 18 8
212.011 170.986 3.11568 18 8
213.589 172.564 1.54044 18 8
215.166 170.987 3.11623 18 8
216.744 172.565 1.54084 18 8
218.321 170.988 3.11696 18 8
219.898 172.566 1.54135 18 8
221.475 170.99 3.11789 18 8
224.628 170.992 3.11907 18 8
223.052 172.568 1.542 18 8
227.78 170.994 3.12057 18 8
226.204 172.57 1.54281 18 8
230.93 170.997 3.12259 18 8
229.356 172.572 1.54384 18 8
232.505 172.576 1.54516 18 8
234.078 171.002 3.12575 18 8
235.651 172.582 1.54702 18 8
237.218 171.013 3.16726 18 8
238.75 172.627 1.61524 18 8
240.318 171.098 3.17059 14 4
158.434 174.209 3.15064 16 6
156.845 175.747 1.56619 14 4
161.546 174.159 3.12993 18 8
159.973 175.734 1.54856 18 8
164.694 174.156 3.12405 18 8
163.118 175.732 1.54612 18 8
166.268 175.73 1.5445 18 8
167.844 174.153 3.12148 18 8
169.418 175.728 1.54328 18 8
170.995 174.15 3.11964 18 8
172.57 175.725 1.5423 18 8
174.147 174.147 3.11818 18 8
175.723 175.723 1.5415 18 8
177.3 174.144 3.11701 18 8
180.454 174.143 3.11608 18 8
178.876 175.721 1.54086 18 8
183.608 174.141 3.11535 18 8
182.031 175.72 1.54034 18 8
186.763 174.14 3.11478 18 8
185.186 175.718 1.53994 18 8
188.341 175.718 1.53963 18 8
189.919 174.14 3.11436 18 8
191.497 175.717 1.5394 18 8
193.075 174.139 3.11405 18 8
194.653 175.717 1.53925 18 8
196.231 174.139 3.11387 18 8
197.809 175.716 1.53916 18 8
199.387 174.139 3.11379 18 8
202.544 174.139 3.11382 18 8
200.966 175.716 1.53915 18 8
205.7 174.139 3.11396 18 8
204.122 175.716 1.5392 18 8
208.856 174.139 3.11422 18 8
207.278 175.717 1.53932 18 8
210.434 175.717 1.53952 18 8
212.012 174.14 3.11459 18 8
213.59 175.718 1.53979 18 8
215.167 174.14 3.1151 18 8
216.745 175.718 1.54015 18 8
218.322 174.141 3.11575 18 8
219.9 175.719 1.54062 18 8
221.477 174.142 3.11659 18 8
224.63 174.144 3.11763 18 8
223.054 175.721 1.5412 18 8
227.783 174.146 3.11895 18 8
226.207 175.722 1.54193 18 8
230.934 174.149 3.12065 18 8
229.358 175.724 1.54283 18 8
232.508 175.728 1.54396 18 8
234.082 174.153 3.12299 18 8
235.657 175.732 1.54537 18 8
237.228 174.16 3.12692 18 8
238.825 175.724 1.57283 18 8
240.359 174.148 3.16128 16 6
241.904 175.752 1.66088 16 6
158.405 177.317 3.13522 18 8
161.543 177.308 3.12536 18 8
164.69 177.306 3.12199 18 8
167.84 177.304 3.1199 18 8
170.992 177.302 3.1183 18 8
174.144 177.3 3.11701 18 8
177.298 177.298 3.11596 18 8
180.452 177.297 3.11511 18 8
183.607 177.295 3.11444 18 8
186.763 177.295 3.11391 18 8
189.918 177.294 3.11351 18 8
193.075 177.294 3.11323 18 8
196.231 177.293 3.11305 18 8
199.387 177.293 3.11298 18 8
202.544 177.293 3.11301 18 8
205.7 177.293 3.11313 18 8
208.857 177.293 3.11337 18 8
212.013 177.294 3.11371 18 8
215.168 177.294 3.11418 18 8
218.324 177.295 3.11478 18 8
221.478 177.296 3.11554 18 8
224.632 177.297 3.11649 18 8
227.785 177.299 3.11767 18 8
230.936 177.301 3.11916 18 8
234.086 177.304 3.12106 18 8
237.234 177.308 3.12372 18 8
240.377 177.302 3.161 18 8
243.477 177.35 3.17294 16 6
155.311 180.493 3.15304 16 6
156.832 178.893 1.55312 16 6
158.397 180.465 3.12874 18 8
159.971 178.887 1.54733 18 8
161.54 180.461 3.12349 18 8
163.116 178.884 1.54511 18 8
164.688 180.458 3.12068 18 8
166.265 178.882 1.54361 18 8
169.416 178.88 1.54248 18 8
167.838 180.456 3.11875 18 8
170.99 180.455 3.11727 18 8
172.568 178.878 1.54159 18 8
174.143 180.454 3.11608 18 8
175.721 178.876 1.54086 18 8
177.297 180.452 3.11511 18 8
178.875 178.875 1.54026 18 8
180.451 180.451 3.11433 18 8
182.03 178.874 1.53979 18 8
183.606 180.45 3.1137 18 8
185.185 178.873 1.53941 18 8
186.762 180.45 3.1132 18 8
188.34 178.872 1.53912 18 8
189.918 180.449 3.11283 18 8
191.496 178.872 1.53891 18 8
193.074 180.449 3.11256 18 8
194.653 178.871 1.53877 18 8
196.231 180.448 3.11239 18 8
197.809 178.871 1.53869 18 8
199.387 180.448 3.11232 18 8
200.966 178.871 1.53867 18 8
202.544 180.448 3.11234 18 8
204.122 178.871 1.53872 18 8
205.701 180.448 3.11246 18 8
207.279 178.871 1.53883 18 8
208.857 180.449 3.11268 18 8
210.435 178.872 1.53901 18 8
212.013 180.449 3.113 18 8
213.591 178.872 1.53926 18 8
215.169 180.449 3.11343 18 8
216.746 178.873 1.5396 18 8
218.325 180.45 3.11399 18 8
219.901 178.873 1.54003 18 8
221.479 180.451 3.1147 18 8