ITEM: TIMESTEP
1
ITEM: NUMBER OF ATOMS
115190
ITEM: BOX BOUNDS pp pp pp
1.4221000000000001e+02 2.5838999999999999e+02
1.4037199999999999e+02 2.5842800000000000e+02
-1.0000000000000000e+01 2.5823599999999999e+02
ITEM: ATOMS x y z type c_cnum
183.665 153.942 2.0379 13 3
188.096 153.982 2.0809 16 6
188.214 152.242 3.17472e-15 12 2
190.325 152.388 2.15712 14 4
190.377 153.918 3.17472e-15 15 5
195.103 151.229 8.37531e-16 14 4
192.671 152.448 1.58293e-15 14 4
192.513 153.967 2.16907 18 8
194.702 152.45 2.24991 17 7
196.912 150.84 2.10643 15 5
198.522 150.936 5.97847e-15 12 2
199.182 152.388 2.16454 18 8
196.956 153.882 1.98911 17 7
199.379 153.922 5.97847e-15 13 3
201.369 150.895 2.03563 13 3
201.398 153.95 2.06159 17 7
203.631 152.434 2.05485 15 5
205.854 153.943 2.16475 18 8
206.012 152.387 3.64127e-15 12 2
208.065 152.388 2.06097 14 4
212.396 152.444 2.23106 15 5
214.67 153.846 1.74078 14 4
179.196 157.057 2.06124 16 6
181.462 155.52 2.17454 15 5
181.194 157.048 5.51191e-15 13 3
183.627 157.074 2.06931 16 6
185.847 155.515 2.11663 16 6
190.299 155.507 2.17242 18 8
188.072 157.065 2.11833 16 6
190.314 157.039 3.17472e-15 14 4
194.853 154.011 8.37531e-16 16 6
192.567 155.507 1.58293e-15 16 6
192.526 157.052 2.16731 18 8
194.757 155.499 2.18761 18 8
194.791 157.06 8.37531e-16 15 5
199.172 155.475 2.15582 18 8
196.973 157.028 2.0281 17 7
199.425 157.028 5.97847e-15 13 3
201.401 157.039 2.05667 17 7
203.625 155.488 2.07479 17 7
205.843 157.05 2.1582 18 8
205.719 155.49 3.64127e-15 13 3
208.041 155.521 2.04848 16 6
210.248 154.01 2.07091 17 7
212.141 154.014 1.30408e-15 13 3
212.537 155.496 2.15974 18 8
210.307 157.042 2.04518 17 7
212.252 157.049 1.30408e-15 13 3
217.276 154.011 6.44502e-15 11 1
214.724 157.049 1.98716 16 6
216.882 155.491 2.17147 18 8
217.194 157.032 6.44502e-15 13 3
219.132 157.097 2.03697 17 7
221.359 155.64 1.99992 13 3
223.579 157.155 2.1647 16 6
172.336 160.219 5.27864e-15 11 1
172.544 161.782 2.16135 17 7
176.998 158.661 2.09568 15 5
174.743 160.224 2.0565 15 5
176.965 161.76 2.0875 16 6
179.205 160.195 2.05997 17 7
181.407 158.613 2.15466 18 8
181.217 160.174 5.51191e-15 13 3
181.408 161.739 2.15501 18 8
183.607 160.171 2.08017 16 6
185.845 158.614 2.11794 16 6
185.836 161.726 2.11355 16 6
188.068 160.164 2.11313 16 6
190.297 160.156 3.17472e-15 14 4
190.284 158.603 2.16992 18 8
190.279 161.721 2.16735 18 8
192.537 158.6 1.58293e-15 16 6
192.521 160.16 2.16224 18 8
194.763 158.602 2.17323 18 8
194.758 160.16 8.37531e-16 14 4
192.523 161.72 1.58293e-15 16 6
194.764 161.721 2.16312 18 8
199.186 158.592 2.14936 18 8
196.982 160.154 2.03204 16 6
199.426 160.153 5.97847e-15 13 3
199.197 161.717 2.14767 18 8
201.413 160.154 2.05346 17 7
203.64 158.591 2.05361 16 6
203.647 161.719 2.05124 16 6
205.854 160.159 2.14735 18 8
206.039 158.592 3.64127e-15 13 3
208.08 158.616 2.05594 17 7
206.072 161.718 3.64127e-15 13 3
208.084 161.726 2.04718 17 7
212.531 158.608 2.14047 18 8
210.315 160.166 2.04416 17 7
212.274 160.173 1.30408e-15 13 3
212.542 161.733 2.13852 18 8
214.743 160.175 1.99559 16 6
216.926 158.615 2.13999 18 8
217.219 160.162 6.44502e-15 13 3
216.955 161.736 2.13729 18 8
219.173 160.197 2.04172 17 7
221.389 158.668 2.04449 16 6
221.413 161.767 2.0469 16 6
223.6 160.225 2.15214 18 8
223.84 158.671 4.10783e-15 13 3
225.843 158.766 2.00548 15 5
223.859 161.765 4.10783e-15 13 3
225.843 161.786 2.04543 17 7
228.123 160.294 1.97055 14 4
230.197 161.95 2.22473 17 7
163.48 166.503 5.04536e-15 11 1
165.899 166.52 2.04063 15 5
168.13 164.943 2.09743 15 5
170.303 163.332 2.05931 16 6
172.301 163.322 5.27864e-15 13 3
170.323 166.478 2.05151 17 7
172.517 164.886 2.15021 18 8
172.315 166.45 5.27864e-15 13 3
174.726 163.329 2.06137 16 6
176.954 164.875 2.08256 16 6
174.715 166.442 2.06264 16 6
179.191 163.308 2.0628 17 7
181.205 163.297 5.51191e-15 13 3
179.184 166.432 2.06233 17 7
181.4 164.862 2.15273 18 8
181.2 166.425 5.51191e-15 13 3
183.604 163.295 2.07833 16 6
183.598 166.423 2.07661 16 6
185.834 164.853 2.10795 16 6
188.063 163.286 2.11195 16 6
190.295 163.282 3.17472e-15 14 4
190.276 164.849 2.16327 18 8
188.063 166.417 2.11058 16 6
190.295 166.417 3.17472e-15 14 4
192.52 163.285 2.15769 18 8
194.748 163.285 8.37531e-16 14 4
192.52 164.85 1.58293e-15 16 6
192.52 166.416 2.15644 18 8
194.766 164.85 2.16012 18 8
194.746 166.415 8.37531e-16 14 4
196.988 163.283 2.03665 16 6
199.425 163.282 5.97847e-15 13 3
199.201 164.848 2.14723 18 8
196.99 166.415 2.03764 16 6
199.426 166.415 5.97847e-15 13 3
201.419 163.283 2.05254 17 7
201.424 166.415 2.05132 17 7
203.654 164.849 2.04911 16 6
205.862 163.284 2.14367 18 8
205.868 166.416 2.14207 18 8
206.08 164.848 3.64127e-15 13 3
208.09 164.853 2.04329 17 7
210.321 163.29 2.04147 17 7
212.288 163.299 1.30408e-15 13 3
212.551 164.859 2.13706 18 8
210.327 166.419 2.03961 17 7
212.299 166.427 1.30408e-15 13 3
214.758 163.298 1.99701 16 6
217.228 163.294 6.44502e-15 13 3
214.766 166.427 1.99752 16 6
216.97 164.864 2.13714 18 8
217.233 166.425 6.44502e-15 13 3
219.19 163.311 2.04255 17 7
219.202 166.438 2.04394 17 7
221.423 164.88 2.05155 16 6
223.623 163.328 2.14785 18 8
223.616 166.456 2.15066 18 8
223.835 164.89 4.10783e-15 13 3
225.817 164.928 2.05687 17 7
228.005 163.414 2.08178 17 7
229.997 163.429 1.77063e-15 14 4
228.075 166.46 2.07121 16 6
230.26 164.948 2.18133 19 9
231.125 166.274 1.77063e-15 13 3
232.355 163.471 1.47929 14 4
234.754 164.854 2.17836 14 4
232.605 166.493 2.15254 18 8
234.364 166.356 6.91157e-15 13 3
161.494 169.651 2.04889 14 4
163.713 168.075 2.16323 18 8
163.464 169.612 5.04536e-15 13 3
163.671 171.192 2.14826 18 8
165.87 169.629 2.05943 16 6
168.097 168.053 2.08478 16 6
168.078 171.171 2.07899 16 6
170.307 169.598 2.05204 17 7
172.523 168.019 2.14878 18 8
172.297 169.577 5.27864e-15 13 3
172.512 171.147 2.14613 18 8
176.946 168.001 2.07805 16 6
174.711 169.576 2.058 16 6
176.943 171.135 2.07481 16 6
179.18 169.563 2.06073 17 7
181.394 167.992 2.151 18 8
181.197 169.558 5.51191e-15 13 3
181.391 171.126 2.14948 18 8
183.595 169.556 2.07524 16 6
185.832 167.985 2.10464 16 6
185.83 171.121 2.10266 16 6
190.297 169.553 3.17472e-15 14 4
190.277 167.984 2.16217 18 8
188.062 169.552 2.10844 16 6
190.277 171.12 2.16171 18 8
192.521 167.983 1.58293e-15 16 6
192.522 169.551 2.15557 18 8
194.768 167.983 2.15857 18 8
194.747 169.551 8.37531e-16 14 4
192.522 171.12 1.58293e-15 16 6
194.77 171.119 2.15809 18 8
199.204 167.982 2.14611 18 8
196.993 169.55 2.03724 16 6
199.427 169.55 5.97847e-15 13 3
199.207 171.118 2.14517 18 8
201.427 169.549 2.05068 17 7
203.659 167.982 2.04762 16 6
203.662 171.118 2.04598 16 6
205.873 169.55 2.14066 18 8
206.086 167.982 3.64127e-15 13 3
208.095 167.985 2.04132 17 7
206.09 171.118 3.64127e-15 13 3
208.1 171.12 2.03993 17 7
212.559 167.991 2.13567 18 8
210.333 169.553 2.0382 17 7
212.307 169.56 1.30408e-15 13 3
212.564 171.125 2.13442 18 8
214.773 169.559 1.99744 16 6
216.979 167.995 2.13651 18 8
217.238 169.558 6.44502e-15 13 3
216.985 171.129 2.13569 18 8
219.21 169.57 2.04441 17 7
221.432 168.013 2.04998 16 6
221.45 171.138 2.04992 16 6
223.651 169.574 2.1477 18 8
223.86 168.007 4.10783e-15 13 3
225.859 168.015 2.06155 17 7
223.872 171.135 4.10783e-15 13 3
225.889 171.134 2.06514 17 7
228.111 169.553 2.067 16 6
230.319 167.977 2.09906 18 8
231.089 169.509 1.77063e-15 13 3
230.319 171.083 2.13555 18 8
234.828 168.002 2.14603 17 7
232.598 169.529 2.16747 18 8
234.321 169.529 6.91157e-15 13 3
234.779 171.141 2.16399 18 8
236.971 169.634 2.04987 16 6
239.036 169.65 6.16617e-15 12 2
239.191 171.202 2.18695 17 7
157.016 175.928 2.00128 13 3
159.233 174.365 1.99021 15 5
161.437 172.773 2.03502 16 6
163.427 172.741 5.04536e-15 13 3
163.644 174.312 2.14424 18 8
161.437 175.899 2.03194 17 7
163.42 175.873 5.04536e-15 13 3
165.846 172.745 2.05481 16 6
165.83 175.87 2.05243 16 6
168.064 174.296 2.07291 16 6
170.297 172.724 2.05148 17 7
172.288 172.709 5.27864e-15 13 3
170.29 175.855 2.05012 17 7
172.504 174.279 2.14428 18 8
172.282 175.844 5.27864e-15 13 3
174.705 172.708 2.05549 16 6
176.94 174.27 2.07213 16 6
174.7 175.843 2.05365 16 6
179.178 172.698 2.05895 17 7
181.196 172.694 5.51191e-15 13 3
179.176 175.835 2.05764 17 7
181.389 174.263 2.14831 18 8
181.194 175.832 5.51191e-15 13 3
183.593 172.692 2.07341 16 6
183.592 175.83 2.07171 16 6
185.83 174.259 2.10028 16 6
190.299 172.689 3.17472e-15 14 4
188.062 172.689 2.1065 16 6
190.277 174.258 2.16064 18 8
190.3 175.828 3.17472e-15 14 4
188.063 175.828 2.10554 16 6
192.523 172.688 2.15475 18 8
194.747 172.688 8.37531e-16 14 4
192.524 174.258 1.58293e-15 16 6
192.524 175.828 2.15392 18 8
194.772 174.257 2.15682 18 8
194.748 175.827 8.37531e-16 14 4
196.995 172.687 2.03686 16 6
199.429 172.687 5.97847e-15 13 3
199.209 174.256 2.1443 18 8
196.997 175.826 2.03661 16 6
199.43 175.826 5.97847e-15 13 3
201.429 172.687 2.04972 17 7
201.431 175.826 2.04872 17 7
203.665 174.257 2.04452 16 6
205.877 172.688 2.13957 18 8
206.094 174.257 3.64127e-15 13 3
205.88 175.827 2.1386 18 8
208.104 174.258 2.03894 17 7
210.337 172.69 2.0373 17 7
212.313 172.695 1.30408e-15 13 3
212.568 174.262 2.13346 18 8
210.341 175.829 2.03654 17 7
212.318 175.833 1.30408e-15 13 3
214.778 172.695 1.99685 16 6
217.244 172.694 6.44502e-15 13 3
214.783 175.833 1.99662 16 6
216.992 174.264 2.13474 18 8
217.248 175.832 6.44502e-15 13 3
219.219 172.7 2.0449 17 7
219.225 175.834 2.0447 17 7
221.459 174.268 2.05017 16 6
223.669 172.701 2.1473 18 8
223.876 174.269 4.10783e-15 13 3
223.676 175.835 2.14675 18 8
225.899 174.264 2.06798 17 7
228.134 172.695 2.06379 16 6
230.554 172.662 1.77063e-15 14 4
228.118 175.837 2.0953 16 6
230.343 174.261 2.14118 18 8
230.313 175.858 1.77063e-15 14 4
232.559 172.659 2.04775 19 9
234.672 172.73 6.91157e-15 15 5
234.783 174.305 2.14379 18 8
232.563 175.88 2.18801 18 8
232.579 174.44 6.91157e-15 16 6
234.793 175.924 6.16617e-15 16 6
236.991 172.721 2.09402 17 7
239.168 172.743 6.16617e-15 14 4
237.028 175.899 2.16653 18 8
236.963 174.375 6.16617e-15 16 6
239.234 174.322 2.17226 18 8
239.254 175.803 4.57438e-15 15 5
241.408 172.733 2.19707 14 4
241.464 174.173 4.57438e-15 14 4
241.42 175.953 2.07127 16 6
154.837 180.632 2.15594 15 5
157.026 179.08 2.03575 15 5
159.227 177.487 2.06791 16 6
159.219 180.614 2.07797 16 6
163.637 177.444 2.14327 18 8
161.43 179.031 2.0413 17 7
163.631 180.579 2.14291 18 8
163.409 179.007 5.04536e-15 13 3
165.823 179.004 2.05028 16 6
168.055 177.428 2.06819 16 6
168.051 180.564 2.06546 16 6
172.499 177.415 2.14294 18 8
170.286 178.99 2.0487 17 7
172.496 180.553 2.14171 18 8
172.278 178.982 5.27864e-15 13 3
176.938 177.407 2.06969 16 6
176.937 180.547 2.06769 16 6
174.697 178.98 2.05176 16 6
181.388 177.402 2.14718 18 8
179.176 178.974 2.05631 17 7
181.388 180.542 2.14622 18 8
181.192 178.971 5.51191e-15 13 3
185.83 177.398 2.09869 16 6
183.592 178.97 2.07034 16 6
185.83 180.54 2.09713 16 6
190.278 177.398 2.15991 18 8
190.279 180.539 2.15912 18 8
190.302 178.969 3.17472e-15 14 4
188.063 178.968 2.10453 16 6
192.525 177.398 1.58293e-15 16 6
194.773 177.397 2.15616 18 8
192.525 178.968 2.15341 18 8
192.526 180.539 1.58293e-15 16 6
194.774 180.539 2.15548 18 8
194.749 178.968 8.37531e-16 14 4
199.21 177.397 2.14337 18 8
199.211 180.538 2.14269 18 8
196.998 178.967 2.03579 16 6
199.431 178.967 5.97847e-15 13 3
203.667 177.397 2.04329 16 6
201.433 178.967 2.04794 17 7
203.668 180.539 2.04244 16 6
206.096 177.397 3.64127e-15 13 3
208.106 177.398 2.03819 17 7
206.098 180.539 3.64127e-15 13 3
205.882 178.968 2.13786 18 8
208.108 180.54 2.03757 17 7
212.572 177.402 2.13277 18 8
212.574 180.542 2.13212 18 8
210.343 178.969 2.03591 17 7
212.321 178.973 1.30408e-15 13 3
216.996 177.402 2.1339 18 8
214.786 178.972 1.99638 16 6
216.998 180.543 2.13344 18 8
217.25 178.973 6.44502e-15 13 3
221.463 177.402 2.05122 16 6
219.227 178.972 2.04464 17 7
221.462 180.543 2.05094 16 6
223.873 177.405 4.10783e-15 13 3
225.897 177.405 2.07048 17 7
223.872 180.545 4.10783e-15 13 3
223.675 178.974 2.14605 18 8
225.895 180.546 2.07268 17 7
230.327 177.418 2.16166 18 8
228.114 178.978 2.09957 16 6
230.323 180.56 2.16608 18 8
230.333 178.998 1.77063e-15 14 4
234.795 177.448 2.17146 18 8
234.79 180.578 2.16388 18 8
232.565 178.999 2.16387 18 8
232.554 177.44 6.91157e-15 16 6
232.566 180.567 6.91157e-15 16 6
234.788 179.006 6.16617e-15 16 6
237.012 179.032 2.17677 18 8
237.038 177.46 4.57438e-15 15 5
237.015 180.584 4.57438e-15 14 4
239.226 177.515 2.10153 17 7
239.224 180.618 2.13501 16 6
241.442 179.089 2.14565 16 6
243.624 177.543 2.07607 13 3
243.619 180.675 2.14749 15 5
154.812 183.744 2.14982 17 7
154.581 182.173 6.49824e-16 12 2
154.572 185.302 6.49824e-16 12 2
156.998 182.186 2.05406 16 6
159.198 183.737 2.07637 16 6
156.974 185.309 2.05658 16 6
161.421 182.162 2.04453 17 7
163.624 183.714 2.14233 18 8
163.401 182.142 5.04536e-15 13 3
161.412 185.292 2.04617 17 7
163.392 185.278 5.04536e-15 13 3
165.819 182.14 2.04882 16 6
168.049 183.702 2.06359 16 6
165.814 185.277 2.04733 16 6
170.283 182.128 2.04749 17 7
172.495 183.693 2.14082 18 8
172.276 182.121 5.27864e-15 13 3
170.282 185.267 2.04649 17 7
172.274 185.262 5.27864e-15 13 3
176.936 183.688 2.0661 16 6
174.695 182.12 2.05022 16 6
174.695 185.261 2.04892 16 6
179.176 182.115 2.05511 17 7
181.388 183.685 2.14539 18 8
181.191 182.113 5.51191e-15 13 3
179.176 185.257 2.05404 17 7
181.19 185.256 5.51191e-15 13 3
183.592 182.112 2.06899 16 6
185.831 183.682 2.09574 16 6
183.592 185.255 2.06787 16 6
190.279 183.682 2.15851 18 8
190.304 182.111 3.17472e-15 14 4
188.064 182.11 2.1033 16 6
190.305 185.255 3.17472e-15 14 4
188.065 185.254 2.10252 16 6
192.526 182.11 2.15282 18 8
192.527 183.682 1.58293e-15 16 6
194.775 183.682 2.15486 18 8
194.75 182.11 8.37531e-16 14 4
192.526 185.254 2.15231 18 8
194.75 185.254 8.37531e-16 14 4
199.212 183.682 2.14214 18 8
196.999 182.11 2.03522 16 6
199.432 182.11 5.97847e-15 13 3
197 185.254 2.0348 16 6
199.432 185.254 5.97847e-15 13 3
201.434 182.11 2.04736 17 7
203.669 183.682 2.04174 16 6
201.434 185.254 2.04685 17 7
206.099 183.682 3.64127e-15 13 3
205.883 182.111 2.13722 18 8
208.109 183.683 2.03715 17 7
205.884 185.254 2.13674 18 8
212.574 183.685 2.13156 18 8
210.344 182.112 2.03551 17 7
212.323 182.114 1.30408e-15 13 3
210.344 185.255 2.03523 17 7
212.324 185.257 1.30408e-15 13 3
214.787 182.114 1.99621 16 6
216.999 183.686 2.13297 18 8
217.249 182.115 6.44502e-15 13 3
214.787 185.257 1.996 16 6
217.249 185.258 6.44502e-15 13 3
219.227 182.114 2.04404 17 7
221.461 183.686 2.05016 16 6
219.227 185.258 2.04373 17 7
223.87 183.688 4.10783e-15 13 3
223.674 182.115 2.14594 18 8
225.892 183.689 2.07492 17 7
223.672 185.26 2.14527 18 8
228.11 182.121 2.10141 16 6
230.322 183.701 2.16463 18 8
230.347 182.135 1.77063e-15 14 4
228.107 185.264 2.10404 16 6
230.344 185.273 1.77063e-15 14 4
234.792 183.713 2.16191 18 8
232.561 182.138 2.16093 18 8
232.57 183.707 6.91157e-15 16 6
234.786 182.142 6.16617e-15 16 6
232.561 185.276 2.16021 18 8
234.788 185.282 6.16617e-15 16 6
237.021 182.157 2.1721 18 8
237.012 183.716 4.57438e-15 14 4
239.222 183.738 2.13093 16 6
237.023 185.291 2.16842 18 8
241.415 182.195 2.16077 16 6
243.609 183.784 2.162 16 6
241.414 185.32 2.16147 16 6
245.798 182.277 2.09422 13 3
245.837 185.344 2.11533 14 4
154.785 186.87 2.14938 17 7
154.794 190.015 2.14935 18 8
152.623 188.466 2.05123 15 5
154.592 188.44 6.49824e-16 13 3
159.186 186.863 2.07331 16 6
156.964 188.433 2.05916 16 6
159.18 189.995 2.07127 16 6
163.618 186.849 2.1414 18 8
161.406 188.424 2.04637 17 7
163.614 189.986 2.14071 18 8
163.388 188.416 5.04536e-15 13 3
168.047 186.841 2.06189 16 6
165.81 188.415 2.04623 16 6
168.045 189.981 2.06053 16 6
172.494 186.834 2.14012 18 8
170.281 188.408 2.04563 17 7
172.493 189.976 2.13957 18 8
172.273 188.404 5.27864e-15 13 3
176.936 186.83 2.06472 16 6
176.936 189.974 2.06373 16 6
174.694 188.403 2.04787 16 6
181.388 186.828 2.14476 18 8
179.176 188.401 2.05325 17 7
181.388 189.972 2.14429 18 8
181.19 188.4 5.51191e-15 13 3
185.831 186.826 2.09476 16 6
183.592 188.399 2.06705 16 6
185.832 189.971 2.09395 16 6
190.28 186.826 2.15804 18 8
190.28 189.971 2.15766 18 8
190.306 188.399 3.17472e-15 14 4
188.065 188.398 2.10192 16 6
192.528 186.826 1.58293e-15 16 6
194.776 186.826 2.15443 18 8
192.527 188.399 2.15194 18 8
192.528 189.971 1.58293e-15 16 6
194.776 189.971 2.15413 18 8
194.75 188.399 8.37531e-16 14 4
199.213 186.826 2.14167 18 8
199.213 189.971 2.14137 18 8
197 188.398 2.03452 16 6
199.433 188.398 5.97847e-15 13 3
203.669 186.826 2.04118 16 6
201.434 188.398 2.04653 17 7
203.67 189.971 2.04085 16 6
206.099 186.827 3.64127e-15 13 3
208.109 186.827 2.0368 17 7
206.099 189.972 3.64127e-15 13 3
205.884 188.399 2.13641 18 8
208.109 189.972 2.03655 17 7
212.574 186.829 2.13123 18 8
212.574 189.974 2.13094 18 8
210.344 188.4 2.03492 17 7
212.324 188.401 1.30408e-15 13 3
216.998 186.83 2.13278 18 8
214.786 188.401 1.99563 16 6
216.997 189.975 2.13258 18 8
217.248 188.403 6.44502e-15 13 3
221.459 186.831 2.04986 16 6
219.226 188.402 2.04367 17 7
221.458 189.976 2.04992 16 6
223.869 186.833 4.10783e-15 13 3
225.89 186.834 2.07342 17 7
223.868 189.978 4.10783e-15 13 3
223.67 188.405 2.14538 18 8
225.889 189.979 2.07341 17 7
230.32 186.843 2.1636 18 8
228.105 188.409 2.10366 16 6
230.319 189.985 2.16342 18 8
230.343 188.416 1.77063e-15 14 4
234.792 186.852 2.16223 18 8
232.567 186.847 6.91157e-15 16 6
234.792 189.993 2.16163 18 8
232.56 188.418 2.16013 18 8
232.566 189.989 6.91157e-15 16 6
234.785 188.421 6.16617e-15 16 6
237.012 186.855 4.57438e-15 14 4
239.222 186.872 2.1342 16 6
237.023 188.428 2.16998 18 8
237.008 189.994 4.57438e-15 14 4
239.229 190.001 2.13486 16 6
243.638 186.884 2.15373 16 6
241.431 188.44 2.15599 16 6
243.654 190.009 2.1444 16 6
245.853 188.444 2.1056 16 6
248.007 190.032 2.16773 16 6
247.868 188.452 2.23719e-15 12 2
154.784 193.14 2.14736 18 8
152.593 191.592 2.05034 15 5
154.562 191.571 6.49824e-16 13 3
152.574 194.699 2.05296 15 5
154.546 194.702 6.49824e-16 13 3
156.966 191.572 2.05465 16 6
159.182 193.131 2.0702 16 6
156.963 194.7 2.05262 16 6
161.404 191.559 2.04599 17 7
163.612 193.125 2.14031 18 8
163.387 191.555 5.04536e-15 13 3
161.403 194.698 2.04561 17 7
163.386 194.695 5.04536e-15 13 3
165.808 191.554 2.04557 16 6
168.044 193.122 2.05966 16 6
165.807 194.694 2.04517 16 6
170.281 191.55 2.04499 17 7
172.493 193.119 2.13917 18 8
172.272 191.547 5.27864e-15 13 3
170.281 194.692 2.04458 17 7
172.272 194.691 5.27864e-15 13 3
176.937 193.118 2.06304 16 6
174.694 191.547 2.04715 16 6
174.694 194.691 2.04667 16 6
179.176 191.545 2.05266 17 7
181.388 193.117 2.14397 18 8
181.19 191.544 5.51191e-15 13 3
179.176 194.69 2.05227 17 7
181.19 194.69 5.51191e-15 13 3
183.592 191.544 2.06645 16 6
185.832 193.116 2.09343 16 6
183.592 194.689 2.06608 16 6
190.281 193.117 2.15742 18 8
190.307 191.544 3.17472e-15 14 4
188.065 191.544 2.10143 16 6
190.307 194.69 3.17472e-15 14 4
188.066 194.689 2.10115 16 6
192.527 191.544 2.1517 18 8
192.529 193.117 1.58293e-15 16 6
194.776 193.117 2.15386 18 8
194.75 191.544 8.37531e-16 14 4
192.527 194.69 2.15152 18 8
194.751 194.69 8.37531e-16 14 4
199.213 193.117 2.14116 18 8
197.001 191.544 2.03428 16 6
199.433 191.544 5.97847e-15 13 3
197.001 194.69 2.0341 16 6
199.433 194.69 5.97847e-15 13 3
201.435 191.544 2.0463 17 7
203.67 193.117 2.0406 16 6
201.434 194.69 2.04612 17 7
206.099 193.118 3.64127e-15 13 3
205.884 191.545 2.13614 18 8
208.109 193.118 2.03636 17 7
205.884 194.691 2.13596 18 8
212.573 193.119 2.13068 18 8
210.344 191.546 2.03479 17 7
212.323 191.547 1.30408e-15 13 3
210.344 194.692 2.0347 17 7
212.323 194.692 1.30408e-15 13 3
214.785 191.547 1.99536 16 6
216.996 193.121 2.13238 18 8
217.247 191.548 6.44502e-15 13 3
214.785 194.693 1.99543 16 6
217.246 194.694 6.44502e-15 13 3
219.224 191.548 2.04319 17 7
221.457 193.122 2.04957 16 6
219.224 194.695 2.04309 17 7
223.868 193.123 4.10783e-15 13 3
223.669 191.55 2.14529 18 8
225.887 193.124 2.07367 17 7
223.668 194.696 2.14518 18 8
228.105 191.553 2.10298 16 6
230.319 193.129 2.16267 18 8
230.343 191.558 1.77063e-15 14 4
228.104 194.698 2.1029 16 6
230.343 194.701 1.77063e-15 14 4
234.793 193.132 2.16113 18 8
232.559 191.56 2.1601 18 8
232.566 193.131 6.91157e-15 16 6
234.784 191.562 6.16617e-15 16 6
232.56 194.702 2.15944 18 8
234.785 194.703 6.16617e-15 16 6
237.027 191.565 2.16856 18 8
237.008 193.134 4.57438e-15 14 4
239.23 193.138 2.13302 16 6
237.027 194.705 2.16752 18 8
241.436 191.573 2.14887 16 6
243.651 193.151 2.14004 16 6
241.435 194.714 2.14732 16 6
245.845 191.591 2.09681 17 7
248.022 193.164 2.16801 16 6
247.86 191.598 2.23719e-15 13 3
245.855 194.725 2.09444 17 7
247.872 194.73 2.23719e-15 13 3
154.783 196.261 2.1478 18 8
152.598 197.816 2.04655 15 5
154.571 197.835 6.49824e-16 13 3
159.177 196.268 2.06896 16 6
156.956 197.838 2.05602 16 6
163.611 196.266 2.14007 18 8
161.402 197.837 2.04589 17 7
163.385 197.835 5.04536e-15 13 3
168.044 196.264 2.05919 16 6
165.807 197.835 2.04487 16 6
172.493 196.263 2.13895 18 8
170.28 197.835 2.04443 17 7
172.272 197.835 5.27864e-15 13 3
176.936 196.262 2.06267 16 6
174.694 197.835 2.04648 16 6
181.388 196.262 2.14377 18 8
179.176 197.835 2.05213 17 7
181.189 197.835 5.51191e-15 13 3
185.832 196.262 2.09315 16 6
183.592 197.835 2.0659 16 6
190.281 196.263 2.15727 18 8
190.307 197.836 3.17472e-15 14 4
188.066 197.836 2.10103 16 6
192.529 196.263 1.58293e-15 16 6
194.776 196.263 2.15372 18 8
192.527 197.836 2.15143 18 8
194.75 197.836 8.37531e-16 14 4
199.213 196.263 2.14102 18 8
197 197.837 2.03404 16 6
199.433 197.837 5.97847e-15 13 3
203.669 196.264 2.04044 16 6
201.434 197.837 2.04607 17 7
206.099 196.264 3.64127e-15 13 3
208.109 196.264 2.03629 17 7
205.884 197.838 2.13591 18 8
212.573 196.266 2.13052 18 8
210.343 197.838 2.03471 17 7
212.323 197.839 1.30408e-15 13 3
216.996 196.267 2.1322 18 8
214.785 197.839 1.99557 16 6
217.246 197.84 6.44502e-15 13 3
221.457 196.268 2.04955 16 6
219.224 197.84 2.0434 17 7
223.867 196.269 4.10783e-15 13 3
225.887 196.27 2.07352 17 7
223.668 197.842 2.14505 18 8
230.319 196.272 2.16282 18 8
228.104 197.843 2.10303 16 6
230.343 197.845 1.77063e-15 14 4
234.793 196.274 2.16072 18 8
232.566 196.273 6.91157e-15 16 6
232.56 197.845 2.15952 18 8
234.784 197.845 6.16617e-15 16 6
237.008 196.275 4.57438e-15 14 4
239.229 196.279 2.13246 16 6
237.027 197.846 2.1678 18 8
243.656 196.286 2.13846 16 6
241.437 197.85 2.14645 16 6
248.034 196.291 2.16915 16 6
245.861 197.854 2.09501 17 7
247.882 197.856 2.23719e-15 13 3
154.77 199.406 2.14685 18 8
154.781 202.551 2.14786 18 8
152.597 200.997 2.04672 15 5
154.57 200.977 6.49824e-16 13 3
159.176 199.406 2.06904 16 6
156.955 200.975 2.05621 16 6
159.176 202.544 2.06913 16 6
163.61 199.406 2.13996 18 8
161.401 200.975 2.04609 17 7
163.611 202.546 2.14014 18 8
163.385 200.976 5.04536e-15 13 3
168.044 199.406 2.05913 16 6
165.807 200.977 2.04498 16 6
168.044 202.549 2.05951 16 6
172.492 199.407 2.13889 18 8
170.28 200.978 2.04457 17 7
172.492 202.551 2.13902 18 8
172.272 200.979 5.27864e-15 13 3
176.936 199.407 2.06264 16 6
176.936 202.552 2.0629 16 6
174.693 200.979 2.0466 16 6
181.388 199.408 2.14371 18 8
179.176 200.98 2.05224 17 7
181.388 202.554 2.1438 18 8
181.189 200.981 5.51191e-15 13 3
185.832 199.409 2.09309 16 6
183.592 200.981 2.06598 16 6
185.832 202.555 2.09328 16 6
190.281 199.409 2.1572 18 8
190.28 202.556 2.15726 18 8
190.307 200.982 3.17472e-15 14 4
188.065 200.982 2.1011 16 6
192.528 199.409 1.58293e-15 16 6
194.776 199.41 2.15369 18 8
192.527 200.983 2.15143 18 8
192.528 202.556 1.58293e-15 16 6
194.776 202.556 2.15374 18 8
194.75 200.983 8.37531e-16 14 4
199.213 199.41 2.14099 18 8
199.212 202.557 2.14106 18 8
197 200.983 2.03411 16 6
199.432 200.983 5.97847e-15 13 3
203.669 199.411 2.04046 16 6
201.434 200.984 2.04617 17 7
203.669 202.558 2.04063 16 6
206.098 199.411 3.64127e-15 13 3
208.108 199.411 2.03634 17 7
206.098 202.558 3.64127e-15 13 3
205.883 200.984 2.13594 18 8
208.108 202.558 2.03648 17 7
212.573 199.412 2.13048 18 8
212.573 202.559 2.13054 18 8
210.343 200.985 2.03479 17 7
212.322 200.986 1.30408e-15 13 3
216.996 199.413 2.13224 18 8
214.784 200.986 1.99564 16 6
216.996 202.559 2.13236 18 8
217.245 200.986 6.44502e-15 13 3
221.457 199.414 2.04986 16 6
219.224 200.986 2.04371 17 7
221.457 202.56 2.0502 16 6
223.867 199.414 4.10783e-15 13 3
225.887 199.415 2.07371 17 7
223.867 202.56 4.10783e-15 13 3
223.668 200.987 2.14521 18 8
225.887 202.56 2.07437 17 7
230.319 199.416 2.1632 18 8
228.104 200.988 2.10323 16 6
230.32 202.56 2.16312 18 8
230.344 200.988 1.77063e-15 14 4
234.793 199.416 2.16087 18 8
232.566 199.417 6.91157e-15 16 6
234.794 202.558 2.16107 18 8
232.56 200.988 2.15974 18 8
232.567 202.559 6.91157e-15 16 6
234.785 200.988 6.16617e-15 16 6
237.007 199.416 4.57438e-15 14 4
239.23 199.417 2.13251 16 6
237.028 200.987 2.16782 18 8
237.009 202.558 4.57438e-15 14 4
239.23 202.556 2.13335 16 6
243.658 199.418 2.13806 16 6
241.437 200.986 2.14685 16 6
243.656 202.551 2.13964 16 6
248.038 199.419 2.16961 16 6
245.861 200.983 2.09567 17 7
248.033 202.547 2.16935 16 6
247.883 200.983 2.23719e-15 13 3
154.778 205.673 2.14726 18 8
152.57 204.115 2.05395 15 5
154.543 204.11 6.49824e-16 13 3
152.586 207.225 2.0525 15 5
154.557 207.241 6.49824e-16 13 3
156.96 204.113 2.0531 16 6
159.181 205.68 2.07077 16 6
156.963 207.239 2.0551 16 6
161.403 204.113 2.04619 17 7
163.612 205.686 2.14057 18 8
163.386 204.117 5.04536e-15 13 3
161.404 207.251 2.04677 17 7
163.388 207.257 5.04536e-15 13 3
165.807 204.118 2.04557 16 6
168.044 205.691 2.06036 16 6
165.808 207.259 2.04655 16 6
170.28 204.121 2.045 17 7
172.492 205.695 2.13932 18 8
172.272 204.123 5.27864e-15 13 3
170.28 207.264 2.04573 17 7
172.272 207.267 5.27864e-15 13 3
176.936 205.697 2.06346 16 6
174.693 204.124 2.047 16 6
174.693 207.268 2.04767 16 6
179.176 204.126 2.05258 17 7
181.388 205.699 2.14404 18 8
181.189 204.127 5.51191e-15 13 3
179.175 207.271 2.05314 17 7
181.189 207.272 5.51191e-15 13 3
183.592 204.127 2.06629 16 6
185.831 205.701 2.09369 16 6
183.591 207.273 2.06682 16 6
190.28 205.702 2.15741 18 8
190.307 204.129 3.17472e-15 14 4
188.065 204.128 2.10134 16 6
190.306 207.275 3.17472e-15 14 4
188.065 207.274 2.10174 16 6
192.527 204.129 2.15152 18 8
192.528 205.702 1.58293e-15 16 6
194.776 205.703 2.15388 18 8
194.75 204.129 8.37531e-16 14 4
192.526 207.275 2.15168 18 8
194.75 207.275 8.37531e-16 14 4
199.212 205.703 2.14123 18 8
197 204.13 2.03429 16 6
199.432 204.13 5.97847e-15 13 3
197 207.276 2.03457 16 6
199.431 207.277 5.97847e-15 13 3
201.434 204.131 2.04636 17 7
203.669 205.704 2.04092 16 6
201.434 207.277 2.04668 17 7
206.098 205.704 3.64127e-15 13 3
205.883 204.131 2.13606 18 8
208.108 205.705 2.03674 17 7
205.883 207.278 2.13629 18 8
212.573 205.705 2.13076 18 8
210.343 204.132 2.03496 17 7
212.323 204.132 1.30408e-15 13 3
210.343 207.278 2.03526 17 7
212.323 207.278 1.30408e-15 13 3
214.785 204.132 1.9958 16 6
216.996 205.705 2.13253 18 8
217.246 204.132 6.44502e-15 13 3
214.785 207.278 1.99611 16 6
217.246 207.278 6.44502e-15 13 3
219.224 204.133 2.04399 17 7
221.457 205.706 2.05062 16 6
219.224 207.279 2.04428 17 7
223.866 205.705 4.10783e-15 13 3
223.668 204.133 2.14553 18 8
225.888 205.705 2.075 17 7
223.669 207.278 2.14582 18 8
228.105 204.132 2.10394 16 6
230.321 205.702 2.16347 18 8
230.345 204.131 1.77063e-15 14 4
228.106 207.276 2.10454 16 6
230.345 207.273 1.77063e-15 14 4
234.795 205.7 2.16143 18 8
232.561 204.13 2.15992 18 8
232.568 205.701 6.91157e-15 16 6
234.786 204.129 6.16617e-15 16 6
232.562 207.272 2.16027 18 8
234.787 207.27 6.16617e-15 16 6
237.029 204.128 2.16798 18 8
237.01 205.699 4.57438e-15 14 4
239.231 205.695 2.13471 16 6
237.028 207.268 2.16875 18 8
241.436 204.122 2.1488 16 6
243.652 205.686 2.14233 16 6
241.437 207.262 2.15178 16 6
245.854 204.113 2.0964 17 7
248.021 205.676 2.16813 16 6
247.874 204.111 2.23719e-15 13 3
245.845 207.247 2.09933 17 7
247.864 207.245 2.23719e-15 13 3
154.79 208.798 2.14849 18 8
154.803 211.934 2.15128 19 9
152.616 210.349 2.05126 15 5
154.587 210.373 6.49824e-16 13 3
159.182 208.813 2.07321 16 6
156.97 210.371 2.05978 16 6
159.186 211.949 2.07649 16 6
163.613 208.826 2.14123 18 8
161.405 210.388 2.04802 17 7
163.615 211.964 2.14213 18 8
163.389 210.397 5.04536e-15 13 3
168.044 208.832 2.06168 16 6
165.809 210.399 2.04782 16 6
168.045 211.973 2.0635 16 6
172.492 208.838 2.13979 18 8
170.28 210.406 2.04673 17 7
172.492 211.981 2.14044 18 8
172.272 210.41 5.27864e-15 13 3
176.935 208.842 2.06433 16 6
176.935 211.986 2.06546 16 6
174.693 210.412 2.04861 16 6
181.387 208.845 2.14441 18 8
179.174 210.415 2.0539 17 7
181.386 211.989 2.14491 18 8
181.189 210.417 5.51191e-15 13 3
185.831 208.847 2.09432 16 6
183.591 210.418 2.06754 16 6
185.83 211.992 2.09516 16 6
190.279 208.848 2.15765 18 8
190.279 211.993 2.15799 18 8
190.305 210.42 3.17472e-15 14 4
188.064 210.42 2.10229 16 6
192.527 208.848 1.58293e-15 16 6
194.775 208.849 2.15411 18 8
192.526 210.421 2.15194 18 8
192.527 211.993 1.58293e-15 16 6
194.775 211.994 2.15443 18 8
194.749 210.421 8.37531e-16 14 4
199.212 208.85 2.14149 18 8
199.212 211.995 2.14184 18 8
196.999 210.422 2.03493 16 6
199.431 210.422 5.97847e-15 13 3
203.669 208.851 2.04136 16 6
201.433 210.423 2.04712 17 7
203.668 211.996 2.04195 16 6
206.097 208.851 3.64127e-15 13 3
208.108 208.851 2.03712 17 7
206.097 211.996 3.64127e-15 13 3
205.883 210.424 2.13661 18 8
208.108 211.997 2.03764 17 7
212.573 208.851 2.13106 18 8
212.573 211.997 2.13146 18 8
210.343 210.424 2.03569 17 7
212.323 210.424 1.30408e-15 13 3
216.996 208.851 2.13285 18 8
214.785 210.424 1.99657 16 6
216.997 211.996 2.13326 18 8
217.246 210.424 6.44502e-15 13 3
221.458 208.851 2.05119 16 6
219.225 210.424 2.04482 17 7
221.459 211.996 2.05202 16 6
223.867 208.85 4.10783e-15 13 3
225.889 208.849 2.07554 17 7
223.867 211.994 4.10783e-15 13 3
223.67 210.422 2.14626 18 8
225.891 211.993 2.07631 17 7
230.322 208.845 2.16386 18 8
228.107 210.42 2.10512 16 6
230.323 211.987 2.1645 18 8
230.345 210.415 1.77063e-15 14 4